                         Program Version 6.0.0  -   RELEASE  -
|  1> ! HF 6-311g(d,p) opt freq
|  2>
|  3> * xyz 0 1
|  4> C         -0.81589       -0.51571       -0.02512
|  5> C          0.30690        0.49327       -0.06114
|  6> H         -0.42809       -1.56713       -0.28060
|  7> H         -1.26914       -0.51520        1.06962
|  8> H         -1.64631       -0.14518       -0.75104
|  9> O          0.16587        1.68279       -0.21470
| 10> O          1.51380       -0.07303        0.21899
| 11> H          2.16801        0.64625        0.13143
| 12> *
| 13>
| 14>
| 15>
| 16>                          ****END OF INPUT****
 Total Charge           Charge          ....    0
 Multiplicity           Mult            ....    1
 Number of Electrons    NEL             ....   32
FINAL SINGLE POINT ENERGY      -227.860712350896
FINAL SINGLE POINT ENERGY      -227.877033377868
FINAL SINGLE POINT ENERGY      -227.877295388918
FINAL SINGLE POINT ENERGY      -227.877237500342
FINAL SINGLE POINT ENERGY      -227.877488840559
FINAL SINGLE POINT ENERGY      -227.877533853905
FINAL SINGLE POINT ENERGY      -227.877737763661
FINAL SINGLE POINT ENERGY      -227.877841614377
FINAL SINGLE POINT ENERGY      -227.877938422041
FINAL SINGLE POINT ENERGY      -227.877961885258
FINAL SINGLE POINT ENERGY      -227.877963711248
                    ***********************HURRAY********************

CARTESIAN COORDINATES (ANGSTROEM)
---------------------------------
  C     -0.824739   -0.493729   -0.008946
  C      0.306986    0.485894   -0.114061
  H     -0.553687   -1.413584   -0.514632
  H     -1.001595   -0.729369    1.034447
  H     -1.712815   -0.069543   -0.452773
  O      0.248326    1.559687   -0.602823
  O      1.428122    0.006107    0.419206
  H      2.104552    0.660597    0.327023

 Multiplicity           Mult            ....    1
 Number of Electrons    NEL             ....   32
 Basis Dimension        Dim             ....   96

ORBITAL ENERGIES
----------------

  NO   OCC          E(Eh)            E(eV)
   0   2.0000     -20.602451      -560.6212
   1   2.0000     -20.539862      -558.9181
   2   2.0000     -11.380529      -309.6799
   3   2.0000     -11.240369      -305.8660
   4   2.0000      -1.480743       -40.2931
   5   2.0000      -1.372230       -37.3403
   6   2.0000      -1.028021       -27.9739
   7   2.0000      -0.833938       -22.6926
   8   2.0000      -0.706348       -19.2207
   9   2.0000      -0.686047       -18.6683
  10   2.0000      -0.656498       -17.8642
  11   2.0000      -0.584225       -15.8976
  12   2.0000      -0.573166       -15.5967
  13   2.0000      -0.562578       -15.3085
  14   2.0000      -0.484390       -13.1809
  15   2.0000      -0.451185       -12.2774
  16   0.0000       0.150895         4.1061
  17   0.0000       0.179948         4.8966
  18   0.0000       0.182878         4.9764
  19   0.0000       0.222905         6.0655
  20   0.0000       0.237214         6.4549

MULLIKEN ATOMIC CHARGES
-----------------------
   0 C :   -0.250906
   1 C :    0.455941
   2 H :    0.124176
   3 H :    0.124173
   4 H :    0.130441
   5 O :   -0.446742
   6 O :   -0.408003
   7 H :    0.270921
Sum of atomic charges:   -0.0000000

LOEWDIN ATOMIC CHARGES
----------------------
   0 C :    0.004098
   1 C :   -0.003022
   2 H :    0.021907
   3 H :    0.021972
   4 H :    0.016634
   5 O :   -0.138806
   6 O :    0.036862
   7 H :    0.040354

  Mayer bond orders larger than 0.100000
B(  0-C ,  1-C ) :   0.9476 B(  0-C ,  2-H ) :   0.9691 B(  0-C ,  3-H ) :   0.9691
B(  0-C ,  4-H ) :   0.9851 B(  1-C ,  5-O ) :   1.9786 B(  1-C ,  6-O ) :   1.0904
B(  6-O ,  7-H ) :   0.9329

FINAL SINGLE POINT ENERGY      -227.877963997756

DIPOLE MOMENT
-------------

Method             : SCF
Type of density    : Electron Density
Multiplicity       :   1
Irrep              :   0
Energy             :  -227.8779639977555007 Eh
Relativity type    :
Basis              : AO
                                X                 Y                 Z
Electronic contribution:      2.358737863       2.263111002      -0.317006026
Nuclear contribution   :     -2.290580321      -2.906153238       0.620048796
                        -----------------------------------------
Total Dipole Moment    :      0.068157542      -0.643042237       0.303042770
                        -----------------------------------------
Magnitude (a.u.)       :      0.714131423
Magnitude (Debye)      :      1.815177823

VIBRATIONAL FREQUENCIES
-----------------------

Scaling factor for frequencies =  1.000000000  (already applied!)

     0:       0.00 cm**-1
     1:       0.00 cm**-1
     2:       0.00 cm**-1
     3:       0.00 cm**-1
     4:       0.00 cm**-1
     5:       0.00 cm**-1
     6:     101.25 cm**-1
     7:     453.66 cm**-1
     8:     582.84 cm**-1
     9:     641.87 cm**-1
    10:     714.46 cm**-1
    11:     933.14 cm**-1
    12:    1099.86 cm**-1
    13:    1171.16 cm**-1
    14:    1344.25 cm**-1
    15:    1460.33 cm**-1
    16:    1547.78 cm**-1
    17:    1586.74 cm**-1
    18:    1593.93 cm**-1
    19:    2020.66 cm**-1
    20:    3192.87 cm**-1
    21:    3256.37 cm**-1
    22:    3302.50 cm**-1
    23:    4119.13 cm**-1

IR SPECTRUM
-----------

 Mode   freq       eps      Int      T**2         TX        TY        TZ
       cm**-1   L/(mol*cm) km/mol    a.u.
----------------------------------------------------------------------------
  6:    101.25   0.000045    0.23  0.000140  ( 0.003066 -0.004631 -0.010436)
  7:    453.66   0.000776    3.92  0.000534  (-0.012964  0.015805 -0.010754)
  8:    582.84   0.008224   41.56  0.004403  ( 0.016772 -0.025828 -0.058780)
  9:    641.87   0.011111   56.15  0.005402  ( 0.070370  0.017038  0.012644)
 10:    714.46   0.023671  119.62  0.010339  (-0.025929  0.039558  0.090010)
 11:    933.14   0.000400    2.02  0.000134  ( 0.007061  0.008946 -0.001969)
 12:   1099.86   0.011655   58.90  0.003307  ( 0.050181 -0.017372  0.022067)
 13:   1171.16   0.002579   13.03  0.000687  ( 0.006669 -0.010130 -0.023240)
 14:   1344.25   0.050790  256.67  0.011791  (-0.099160  0.022215 -0.038269)
 15:   1460.33   0.007007   35.41  0.001497  ( 0.035763 -0.006612  0.013215)
 16:   1547.78   0.017357   87.72  0.003500  ( 0.057208  0.005456  0.014036)
 17:   1586.74   0.002807   14.18  0.000552  (-0.004125 -0.021562  0.008371)
 18:   1593.93   0.001644    8.31  0.000322  (-0.004479  0.007084  0.015864)
 19:   2020.66   0.089103  450.29  0.013761  (-0.018223  0.104060 -0.050991)
 20:   3192.87   0.000746    3.77  0.000073  (-0.004203 -0.007155  0.002013)
 21:   3256.37   0.002347   11.86  0.000225  ( 0.003748 -0.005863 -0.013284)
 22:   3302.50   0.002307   11.66  0.000218  (-0.011253  0.007152 -0.006339)
 23:   4119.13   0.021531  108.81  0.001631  (-0.034665 -0.020704 -0.000911)

--------------------------
THERMOCHEMISTRY AT 298.15K
--------------------------

Temperature         ...   298.15 K
Pressure            ...     1.00 atm
Total Mass          ...    60.05 AMU
Quasi RRHO          ...     True
Cut-Off Frequency   ...     1.00 cm^-1

Throughout the following assumptions are being made:
  (1) The electronic state is orbitally nondegenerate
  (2) There are no thermally accessible electronically excited states
  (3) Hindered rotations indicated by low frequency modes are not
      treated as such but are treated as vibrations and this may
      cause some error
  (4) All equations used are the standard statistical mechanics
      equations for an ideal gas
  (5) All vibrations are strictly harmonic

freq.     101.25  E(vib)   ...       0.46
freq.     453.66  E(vib)   ...       0.16
freq.     582.84  E(vib)   ...       0.11
freq.     641.87  E(vib)   ...       0.09
freq.     714.46  E(vib)   ...       0.07
freq.     933.14  E(vib)   ...       0.03
freq.    1099.86  E(vib)   ...       0.02
freq.    1171.16  E(vib)   ...       0.01
freq.    1344.25  E(vib)   ...       0.01
freq.    1460.33  E(vib)   ...       0.00
freq.    1547.78  E(vib)   ...       0.00
freq.    1586.74  E(vib)   ...       0.00
freq.    1593.93  E(vib)   ...       0.00
freq.    2020.66  E(vib)   ...       0.00
freq.    3192.87  E(vib)   ...       0.00
freq.    3256.37  E(vib)   ...       0.00
freq.    3302.50  E(vib)   ...       0.00
freq.    4119.13  E(vib)   ...       0.00

------------
INNER ENERGY
------------

The inner energy is: U= E(el) + E(ZPE) + E(vib) + E(rot) + E(trans)
    E(el)   - is the total energy from the electronic structure calculation
              = E(kin-el) + E(nuc-el) + E(el-el) + E(nuc-nuc)
    E(ZPE)  - the the zero temperature vibrational energy from the frequency calculation
    E(vib)  - the the finite temperature correction to E(ZPE) due to population
              of excited vibrational states
    E(rot)  - is the rotational thermal energy
    E(trans)- is the translational thermal energy

Summary of contributions to the inner energy U:
Electronic energy                ...   -227.87796400 Eh
Zero point energy                ...      0.06634662 Eh      41.63 kcal/mol
Thermal vibrational correction   ...      0.00152581 Eh       0.96 kcal/mol
Thermal rotational correction    ...      0.00141627 Eh       0.89 kcal/mol
Thermal translational correction ...      0.00141627 Eh       0.89 kcal/mol
-----------------------------------------------------------------------
Total thermal energy                   -227.80725903 Eh

Summary of corrections to the electronic energy:
(perhaps to be used in another calculation)
Total thermal correction                  0.00435835 Eh       2.73 kcal/mol
Non-thermal (ZPE) correction              0.06634662 Eh      41.63 kcal/mol
-----------------------------------------------------------------------
Total correction                          0.07070497 Eh      44.37 kcal/mol

--------
ENTHALPY
--------

The enthalpy is H = U + kB*T
                kB is Boltzmann's constant
Total thermal energy              ...   -227.80725903 Eh
Thermal Enthalpy correction       ...      0.00094421 Eh       0.59 kcal/mol
-----------------------------------------------------------------------
Total Enthalpy                    ...   -227.80631482 Eh

Note: Only C1 symmetry has been detected, increase convergence thresholds
      if your molecule has a higher symmetry. Symmetry factor of 1.0 is
      used for the rotational entropy correction.

Note: Rotational entropy computed according to Herzberg
Infrared and Raman Spectra, Chapter V,1, Van Nostrand Reinhold, 1945
Point Group:  C1, Symmetry Number:   1
Rotational constants in cm-1:     0.392174     0.320025     0.182110

Vibrational entropy computed according to the QRRHO of S. Grimme
Chem.Eur.J. 2012 18 9955 using a reference frequency of 100.0 cm-1

-------
ENTROPY
-------

The entropy contributions are T*S = T*(S(el)+S(vib)+S(rot)+S(trans))
     S(el)   - electronic entropy
     S(vib)  - vibrational entropy
     S(rot)  - rotational entropy
     S(trans)- translational entropy
The entropies will be listed as multiplied by the temperature to get
units of energy

Electronic entropy                ...      0.00000000 Eh      0.00 kcal/mol
Vibrational entropy               ...      0.00255494 Eh      1.60 kcal/mol
Rotational entropy                ...      0.01129463 Eh      7.09 kcal/mol
Translational entropy             ...      0.01814900 Eh     11.39 kcal/mol
-----------------------------------------------------------------------
Final entropy term                ...      0.03199857 Eh     20.08 kcal/mol

In case the symmetry of your molecule has not been determined correctly
or in case you have a reason to use a different symmetry number we print
out the resulting rotational entropy values for sn=1,12:

 non-linear molecules -----------------------------------
|  sn= 1 | S(rot)=       0.01129463 Eh      7.09 kcal/mol|
|  sn= 2 | S(rot)=       0.01064017 Eh      6.68 kcal/mol|
|  sn= 3 | S(rot)=       0.01025734 Eh      6.44 kcal/mol|
|  sn= 4 | S(rot)=       0.00998571 Eh      6.27 kcal/mol|
|  sn= 5 | S(rot)=       0.00977503 Eh      6.13 kcal/mol|
|  sn= 6 | S(rot)=       0.00960288 Eh      6.03 kcal/mol|
|  sn= 7 | S(rot)=       0.00945734 Eh      5.93 kcal/mol|
|  sn= 8 | S(rot)=       0.00933126 Eh      5.86 kcal/mol|
|  sn= 9 | S(rot)=       0.00922005 Eh      5.79 kcal/mol|
|  sn=10 | S(rot)=       0.00912057 Eh      5.72 kcal/mol|
|  sn=11 | S(rot)=       0.00903058 Eh      5.67 kcal/mol|
|  sn=12 | S(rot)=       0.00894843 Eh      5.62 kcal/mol|
 linear molecules ---------------------------------------
|  Dinfh | S(rot)=       0.00693388 Eh      4.35 kcal/mol|
|  Cinfv | S(rot)=       0.00758834 Eh      4.76 kcal/mol|
 --------------------------------------------------------

-------------------
GIBBS FREE ENERGY
-------------------

The Gibbs free energy is G = H - T*S

Total enthalpy                    ...   -227.80631482 Eh
Total entropy correction          ...     -0.03199857 Eh    -20.08 kcal/mol
-----------------------------------------------------------------------
Final Gibbs free energy         ...   -227.83831339 Eh

For completeness - the Gibbs free energy minus the electronic energy
G-E(el)                           ...      0.03965061 Eh     24.88 kcal/mol

                             ****ORCA TERMINATED NORMALLY****
TOTAL RUN TIME: 0 days 0 hours 2 minutes 1 seconds 909 msec
