 Gaussian 16, Revision A.03,
 Gaussian 16:  ES64L-G16RevA.03 25-Dec-2016

 --------------------------
 #p opt freq hf/6-311g(d,p)
 --------------------------

 ----------------
 CH3F Calculation
 ----------------
 Symbolic Z-matrix:
 Charge =  0 Multiplicity = 1

 SCF Done:  E(RHF) =  -139.076880894     A.U. after   10 cycles
 SCF Done:  E(RHF) =  -139.078086898     A.U. after    9 cycles
 SCF Done:  E(RHF) =  -139.078209177     A.U. after    8 cycles
 SCF Done:  E(RHF) =  -139.078214574     A.U. after    7 cycles
 Optimization completed.
    -- Stationary point found.
 Normal termination of Gaussian 16 at Wed Sep 11 14:07:52 2024.

 --------------------------------------------------------------------
 #P Geom=AllCheck Guess=TCheck SCRF=Check GenChk RHF/6-311G(d,p) Freq
 --------------------------------------------------------------------

 Structure from the checkpoint file:  "ch3f.chk"
 ----------------
 CH3F Calculation
 ----------------
 Charge =  0 Multiplicity = 1

                         Standard orientation:
 ---------------------------------------------------------------------
 Center     Atomic      Atomic             Coordinates (Angstroms)
 Number     Number       Type             X           Y           Z
 ---------------------------------------------------------------------
      1          9           0        0.000000    0.000000    0.740332
      2          6           0        0.000000    0.000000   -0.623071
      3          1           0       -0.000000    1.023844   -0.974853
      4          1           0        0.886675   -0.511922   -0.974853
      5          1           0       -0.886675   -0.511922   -0.974853
 ---------------------------------------------------------------------

 SCF Done:  E(RHF) =  -139.078214574     A.U. after    1 cycles

 The electronic state is 1-A1.
 Alpha  occ. eigenvalues --  -26.26398 -11.30040  -1.58678  -0.95458  -0.69575
 Alpha  occ. eigenvalues --   -0.69575  -0.67464  -0.52561  -0.52561
 Alpha virt. eigenvalues --    0.15918   0.21991   0.21991   0.27809   0.45493
 Alpha virt. eigenvalues --    0.45493   0.67490   0.69087   0.76979   0.76979
 Alpha virt. eigenvalues --    0.87570   1.17346   1.17346   1.20627   1.44877

 Mulliken charges:
               1
     1  F   -0.348242
     2  C    0.119098
     3  H    0.076381
     4  H    0.076381
     5  H    0.076381
 Sum of Mulliken charges =  -0.00000

 Dipole moment (field-independent basis, Debye):
    X=             -0.0000    Y=             -0.0000    Z=             -2.0669  Tot=              2.0669
 Quadrupole moment (field-independent basis, Debye-Ang):
   XX=            -11.6380   YY=            -11.6380   ZZ=            -12.3436
   XY=             -0.0000   XZ=              0.0000   YZ=              0.0000

  Exact polarizability:  12.421  -0.000  12.421  -0.000  -0.000  12.365
 Approx polarizability:   9.959  -0.000   9.959   0.000  -0.000  10.235

                      1                      2                      3
                     A1                      E                      E
 Frequencies --   1170.0318              1301.0388              1301.0389
 Red. masses --      7.4833                 1.2557                 1.2557
 Frc consts  --      6.0359                 1.2523                 1.2523
 IR Inten    --    139.9924                 3.4421                 3.4421
 Raman Activ --      5.5047                 4.8461                 4.8461

                      4                      5                      6
                      E                      E                     A1
 Frequencies --   1613.6657              1613.6657              1625.1596
 Red. masses --      1.0492                 1.0492                 1.1538
 Frc consts  --      1.6097                 1.6097                 1.7955
 IR Inten    --      2.9858                 2.9858                 7.8953
 Raman Activ --     11.0634                11.0634                 2.9140

                      7                      8                      9
                     A1                      E                      E
 Frequencies --   3190.4453              3271.7399              3271.7399
 Red. masses --      1.0276                 1.1089                 1.1089
 Frc consts  --      6.1627                 6.9934                 6.9934
 IR Inten    --     31.4321                56.8739                56.8740
 Raman Activ --    133.9435                55.0914                55.0914

 - Thermochemistry -
 -------------------
 Temperature   298.150 Kelvin.  Pressure   1.00000 Atm.
 Atom     1 has atomic number  9 and mass  18.99840

 Molecular mass:    34.02188 amu.
 Principal axes and moments of inertia in atomic units:
                           1         2         3
     Eigenvalues --    11.31805  68.34966  68.34966
           X            0.00000   0.81292  -0.58238
           Y            0.00000   0.58238   0.81292
           Z            1.00000  -0.00000  -0.00000
 This molecule is a prolate symmetric top.
 Rotational symmetry number  3.
 Rotational temperatures (Kelvin)      7.65273     1.26722     1.26722
 Rotational constants (GHZ):         159.45696    26.40454    26.40454
 Zero-point vibrational energy     109808.4 (Joules/Mol)
                                   26.24483 (Kcal/Mol)
 Vibrational temperatures:   1683.41  1871.90  1871.90  2321.70  2321.70
          (Kelvin)           2338.24  4590.34  4707.30  4707.30

 Zero-point correction=                           0.041824 (Hartree/Particle)
 Thermal correction to Energy=                    0.044707
 Thermal correction to Enthalpy=                  0.045651
 Thermal correction to Gibbs Free Energy=         0.020444
 Sum of electronic and zero-point Energies=           -139.036391
 Sum of electronic and thermal Energies=              -139.033508
 Sum of electronic and thermal Enthalpies=            -139.032564
 Sum of electronic and thermal Free Energies=         -139.057771

                     E (Thermal)             CV                S
                      KCal/Mol        Cal/Mol-Kelvin    Cal/Mol-Kelvin
 Total                   28.054              6.630             53.053
 Electronic               0.000              0.000              0.000
 Translational            0.889              2.981             36.504
 Rotational               0.889              2.981             16.426
 Vibrational             26.276              0.669              0.123

 Optimization completed.
    -- Stationary point found.
 Normal termination of Gaussian 16 at Wed Sep 11 14:07:54 2024.
