 Gaussian 16, Revision A.03,
 Gaussian 16:  ES64L-G16RevA.03 25-Dec-2016

 --------------------
 #p opt freq hf/3-21g
 --------------------

 ---------------
 CO2 Calculation
 ---------------
 Symbolic Z-matrix:
 Charge =  0 Multiplicity = 1

 SCF Done:  E(RHF) =  -186.561257492     A.U. after    9 cycles
 Optimization completed.
    -- Stationary point found.
 Normal termination of Gaussian 16 at Wed Sep 11 13:57:54 2024.

 --------------------------------------------------------------
 #P Geom=AllCheck Guess=TCheck SCRF=Check GenChk RHF/3-21G Freq
 --------------------------------------------------------------

 Structure from the checkpoint file:  "c2h2.chk"
 ---------------
 CO2 Calculation
 ---------------
 Charge =  0 Multiplicity = 1

                         Standard orientation:
 ---------------------------------------------------------------------
 Center     Atomic      Atomic             Coordinates (Angstroms)
 Number     Number       Type             X           Y           Z
 ---------------------------------------------------------------------
      1          6           0        0.000000    0.000000    0.000000
      2          8           0        0.000000    0.000000    1.155800
      3          8           0        0.000000    0.000000   -1.155800
 ---------------------------------------------------------------------

 SCF Done:  E(RHF) =  -186.561257492     A.U. after    1 cycles

 The electronic state is 1-SGG.
 Alpha  occ. eigenvalues --  -20.55918 -20.55783 -11.42220  -1.54909  -1.50326
 Alpha  occ. eigenvalues --   -0.77200  -0.72221  -0.72221  -0.72211  -0.52149
 Alpha  occ. eigenvalues --   -0.52149
 Alpha virt. eigenvalues --    0.21101   0.21101   0.29420   0.67026   0.84711
 Alpha virt. eigenvalues --    0.84711   1.21371   1.27677   1.73528   1.73528
 Alpha virt. eigenvalues --    1.82490   1.84842   1.95011   1.95011   3.33189

 Mulliken charges:
               1
     1  C    1.082610
     2  O   -0.541305
     3  O   -0.541305
 Sum of Mulliken charges =  -0.00000

 Dipole moment (field-independent basis, Debye):
    X=             -0.0000    Y=              0.0000    Z=             -0.0000  Tot=              0.0000
 Quadrupole moment (field-independent basis, Debye-Ang):
   XX=            -14.3717   YY=            -14.3717   ZZ=            -21.4456
   XY=              0.0000   XZ=              0.0000   YZ=              0.0000

  Exact polarizability:   4.723   0.000   4.723  -0.000   0.000  18.992
 Approx polarizability:   3.636  -0.000   3.636  -0.000  -0.000  24.513

                      1                      2                      3
                     PIU                    PIU                    SGG
 Frequencies --    659.1516               659.1516              1427.3818
 Red. masses --     12.8774                12.8774                15.9949
 Frc consts  --      3.2965                 3.2965                19.2005
 IR Inten    --     65.3354                65.3354                 0.0000
 Raman Activ --      0.0000                 0.0000                10.8866

                      4
                     SGU
 Frequencies --   2463.0121
 Red. masses --     12.8774
 Frc consts  --     46.0268
 IR Inten    --    729.3706
 Raman Activ --      0.0000

 - Thermochemistry -
 -------------------
 Temperature   298.150 Kelvin.  Pressure   1.00000 Atm.
 Atom     1 has atomic number  6 and mass  12.00000

 Molecular mass:    43.98983 amu.
 Principal axes and moments of inertia in atomic units:
                           1         2         3
     Eigenvalues --     0.00000 152.60720 152.60720
           X           -0.00000   1.00000  -0.00000
           Y            0.00000   0.00000   1.00000
           Z            1.00000   0.00000  -0.00000
 This molecule is a prolate symmetric top.
 Rotational symmetry number  2.
 Rotational temperature (Kelvin)      0.56756
 Rotational constant (GHZ):          11.826055
 Zero-point vibrational energy      31154.9 (Joules/Mol)
                                    7.44621 (Kcal/Mol)
 Vibrational temperatures:    948.37   948.37  2053.68  3543.73
          (Kelvin)

 Zero-point correction=                           0.011866 (Hartree/Particle)
 Thermal correction to Energy=                    0.014494
 Thermal correction to Enthalpy=                  0.015438
 Thermal correction to Gibbs Free Energy=        -0.008823
 Sum of electronic and zero-point Energies=           -186.549391
 Sum of electronic and thermal Energies=              -186.546764
 Sum of electronic and thermal Enthalpies=            -186.545819
 Sum of electronic and thermal Free Energies=         -186.570080

                     E (Thermal)             CV                S
                      KCal/Mol        Cal/Mol-Kelvin    Cal/Mol-Kelvin
 Total                    9.095              6.885             51.061
 Electronic               0.000              0.000              0.000
 Translational            0.889              2.981             37.270
 Rotational               0.592              1.987             13.058
 Vibrational              7.614              1.917              0.733

 Optimization completed.
    -- Stationary point found.
 Normal termination of Gaussian 16 at Wed Sep 11 13:57:55 2024.
