 Gaussian 16, Revision A.03,
 Gaussian 16:  ES64L-G16RevA.03 25-Dec-2016

 --------------------------
 #p opt freq hf/6-311g(d,p)
 --------------------------

 -------------------
 Title Card Required
 -------------------
 Symbolic Z-matrix:
 Charge =  0 Multiplicity = 1

 SCF Done:  E(RHF) =  -76.0462451037     A.U. after   11 cycles
 SCF Done:  E(RHF) =  -76.0469988873     A.U. after    9 cycles
 SCF Done:  E(RHF) =  -76.0470119200     A.U. after    8 cycles
 Optimization completed.
    -- Stationary point found.
 Normal termination of Gaussian 16 at Wed Sep 11 12:44:09 2024.

 --------------------------------------------------------------------
 #P Geom=AllCheck Guess=TCheck SCRF=Check GenChk RHF/6-311G(d,p) Freq
 --------------------------------------------------------------------

 Structure from the checkpoint file:  "h2o_gaussian.chk"
 -------------------
 Title Card Required
 -------------------
 Charge =  0 Multiplicity = 1

                         Standard orientation:
 ---------------------------------------------------------------------
 Center     Atomic      Atomic             Coordinates (Angstroms)
 Number     Number       Type             X           Y           Z
 ---------------------------------------------------------------------
      1          8           0       -0.000000    0.000000    0.113877
      2          1           0        0.000000    0.749128   -0.455508
      3          1           0       -0.000000   -0.749128   -0.455508
 ---------------------------------------------------------------------

 SCF Done:  E(RHF) =  -76.0470119200     A.U. after    1 cycles

 The electronic state is 1-A1.
 Alpha  occ. eigenvalues --  -20.54130  -1.34910  -0.71736  -0.57273  -0.50064
 Alpha virt. eigenvalues --    0.15262   0.21857   0.57737   0.62052   0.99746
 Alpha virt. eigenvalues --    1.00312   1.11137   1.31043   1.49915   1.51568
 Alpha virt. eigenvalues --    1.72725   1.92997   2.27783   2.39766   2.61039

 Mulliken charges:
               1
     1  O   -0.498507
     2  H    0.249254
     3  H    0.249254
 Sum of Mulliken charges =  -0.00000

 Dipole moment (field-independent basis, Debye):
    X=             -0.0000    Y=             -0.0000    Z=             -2.1367  Tot=              2.1367
 Quadrupole moment (field-independent basis, Debye-Ang):
   XX=             -7.1363   YY=             -4.1275   ZZ=             -6.0194
   XY=              0.0000   XZ=              0.0000   YZ=              0.0000

  Exact polarizability:   3.773   0.000   7.080   0.000   0.000   5.277
 Approx polarizability:   3.032   0.000   5.810   0.000   0.000   4.385

                      1                      2                      3
                     A1                     A1                     B2
 Frequencies --   1750.1435              4142.1307              4237.9230
 Red. masses --      1.0823                 1.0456                 1.0829
 Frc consts  --      1.9531                10.5694                11.4587
 IR Inten    --     79.1718                17.7447                57.4799
 Raman Activ --      6.3775                65.4548                32.3831

 - Thermochemistry -
 -------------------
 Temperature   298.150 Kelvin.  Pressure   1.00000 Atm.
 Atom     1 has atomic number  8 and mass  15.99491

 Molecular mass:    18.01056 amu.
 Principal axes and moments of inertia in atomic units:
                           1         2         3
     Eigenvalues --     2.07243   4.03948   6.11190
           X           -0.00000   0.00000   1.00000
           Y            1.00000  -0.00000  -0.00000
           Z            0.00000   1.00000  -0.00000
 This molecule is an asymmetric top.
 Rotational symmetry number  2.
 Rotational temperatures (Kelvin)     41.79348    21.44186    14.17135
 Rotational constants (GHZ):         870.83475   446.77594   295.28298
 Zero-point vibrational energy      60592.0 (Joules/Mol)
                                   14.48184 (Kcal/Mol)
 Vibrational temperatures:   2518.07  5959.60  6097.43
          (Kelvin)

 Zero-point correction=                           0.023078 (Hartree/Particle)
 Thermal correction to Energy=                    0.025913
 Thermal correction to Enthalpy=                  0.026857
 Thermal correction to Gibbs Free Energy=         0.005501
 Sum of electronic and zero-point Energies=            -76.023934
 Sum of electronic and thermal Energies=               -76.021099
 Sum of electronic and thermal Enthalpies=             -76.020155
 Sum of electronic and thermal Free Energies=          -76.041511

                     E (Thermal)             CV                S
                      KCal/Mol        Cal/Mol-Kelvin    Cal/Mol-Kelvin
 Total                   16.260              5.992             44.948
 Electronic               0.000              0.000              0.000
 Translational            0.889              2.981             34.608
 Rotational               0.889              2.981             10.335
 Vibrational             14.483              0.030              0.004

 Optimization completed.
    -- Stationary point found.
 Normal termination of Gaussian 16 at Wed Sep 11 12:44:10 2024.
