 Gaussian 16, Revision A.03,
 Gaussian 16:  ES64L-G16RevA.03 25-Dec-2016

 -------------------------------------
 # opt freq hf/3-21g geom=connectivity
 -------------------------------------

 -------------------
 Title Card Required
 -------------------
 Symbolic Z-matrix:
 Charge =  0 Multiplicity = 1

 SCF Done:  E(RHF) =  -75.5858099772     A.U. after   10 cycles
 SCF Done:  E(RHF) =  -75.5859558345     A.U. after    8 cycles
 SCF Done:  E(RHF) =  -75.5859595965     A.U. after    8 cycles
 Optimization completed.
    -- Stationary point found.
 Normal termination of Gaussian 16 at Mon Sep  9 13:36:55 2024.

 --------------------------------------------------------------
 #N Geom=AllCheck Guess=TCheck SCRF=Check GenChk RHF/3-21G Freq
 --------------------------------------------------------------

 Structure from the checkpoint file:  "h2o_gaussian.chk"
 -------------------
 Title Card Required
 -------------------
 Charge =  0 Multiplicity = 1

                         Standard orientation:
 ---------------------------------------------------------------------
 Center     Atomic      Atomic             Coordinates (Angstroms)
 Number     Number       Type             X           Y           Z
 ---------------------------------------------------------------------
      1          8           0        0.000000    0.000000    0.114039
      2          1           0        0.000000    0.780843   -0.456155
      3          1           0       -0.000000   -0.780843   -0.456155
 ---------------------------------------------------------------------

 SCF Done:  E(RHF) =  -75.5859595965     A.U. after    1 cycles

 The electronic state is 1-A1.
 Alpha  occ. eigenvalues --  -20.42722  -1.32082  -0.68549  -0.52972  -0.47720
 Alpha virt. eigenvalues --    0.26101   0.36028   1.20679   1.27615   1.78399
 Alpha virt. eigenvalues --    1.86332   2.02494   3.10312

 Mulliken charges:
               1
     1  O   -0.732879
     2  H    0.366440
     3  H    0.366440
 Sum of Mulliken charges =   0.00000

 Dipole moment (field-independent basis, Debye):
    X=             -0.0000    Y=              0.0000    Z=             -2.3867  Tot=              2.3867
 Quadrupole moment (field-independent basis, Debye-Ang):
   XX=             -6.8385   YY=             -3.9696   ZZ=             -5.8833
   XY=              0.0000   XZ=              0.0000   YZ=             -0.0000

  Exact polarizability:   0.783   0.000   6.808   0.000  -0.000   3.626
 Approx polarizability:   0.581   0.000   4.871   0.000  -0.000   2.823

                      1                      2                      3
                     A1                     A1                     B2
 Frequencies --   1799.2006              3809.3891              3943.2818
 Red. masses --      1.0899                 1.0386                 1.0850
 Frc consts  --      2.0786                 8.8796                 9.9406
 IR Inten    --     79.9885                 0.0475                 9.2023
 Raman Activ --     11.4963                95.8049                44.0802

 - Thermochemistry -
 -------------------
 Temperature   298.150 Kelvin.  Pressure   1.00000 Atm.
 Atom     1 has atomic number  8 and mass  15.99491

 Molecular mass:    18.01056 amu.
 Principal axes and moments of inertia in atomic units:
                           1         2         3
     Eigenvalues --     2.07832   4.38875   6.46707
           X           -0.00000   0.00000   1.00000
           Y            1.00000   0.00000   0.00000
           Z           -0.00000   1.00000  -0.00000
 This molecule is an asymmetric top.
 Rotational symmetry number  2.
 Rotational temperatures (Kelvin)     41.67498    19.73546    13.39308
 Rotational constants (GHZ):         868.36560   411.22025   279.06648
 Zero-point vibrational energy      57132.9 (Joules/Mol)
                                   13.65509 (Kcal/Mol)
 Vibrational temperatures:   2588.65  5480.86  5673.50
          (Kelvin)

 Zero-point correction=                           0.021761 (Hartree/Particle)
 Thermal correction to Energy=                    0.024595
 Thermal correction to Enthalpy=                  0.025539
 Thermal correction to Gibbs Free Energy=         0.004116
 Sum of electronic and zero-point Energies=            -75.564199
 Sum of electronic and thermal Energies=               -75.561365
 Sum of electronic and thermal Enthalpies=             -75.560421
 Sum of electronic and thermal Free Energies=          -75.581844

                     E (Thermal)             CV                S
                      KCal/Mol        Cal/Mol-Kelvin    Cal/Mol-Kelvin
 Total                   15.433              5.987             45.088
 Electronic               0.000              0.000              0.000
 Translational            0.889              2.981             34.608
 Rotational               0.889              2.981             10.477
 Vibrational             13.656              0.025              0.003

 Optimization completed.
    -- Stationary point found.
 Normal termination of Gaussian 16 at Mon Sep  9 13:36:56 2024.
