 Gaussian 16, Revision A.03,
 Gaussian 16:  AS64L-G16RevA.03 25-Dec-2016

 ----------------------------------------------------------
 # B3LYP/6-311++G(3df,3pd) FREQ SCF=VERYTIGHT INT=ULTRAFINE
 ----------------------------------------------------------

 -----------
 F2 Geom Opt
 -----------
 Symbolic Z-matrix:
 Charge =  0 Multiplicity = 1

                         Standard orientation:
 ---------------------------------------------------------------------
 Center     Atomic      Atomic             Coordinates (Angstroms)
 Number     Number       Type             X           Y           Z
 ---------------------------------------------------------------------
      1          9           0        0.000000    0.000000    0.697129
      2          9           0        0.000000    0.000000   -0.697129
 ---------------------------------------------------------------------

 SCF Done:  E(RB3LYP) =  -199.581110937     A.U. after    9 cycles

 The electronic state is 1-SGG.
 Alpha  occ. eigenvalues --  -24.79758 -24.79756  -1.36854  -1.11666  -0.61901
 Alpha  occ. eigenvalues --   -0.55631  -0.55631  -0.42208  -0.42208
 Alpha virt. eigenvalues --   -0.15683   0.10758   0.15580   0.17798   0.17798
 Alpha virt. eigenvalues --    0.25325   0.25668   0.25668   0.41271   0.90089
 Alpha virt. eigenvalues --    0.90089   0.96939   0.96939   1.16524   1.17741

 Mulliken charges:
               1
     1  F    0.000000
     2  F    0.000000
 Sum of Mulliken charges =   0.00000

 Dipole moment (field-independent basis, Debye):
    X=              0.0000    Y=             -0.0000    Z=             -0.0000  Tot=              0.0000
 Quadrupole moment (field-independent basis, Debye-Ang):
   XX=             -9.7543   YY=             -9.7543   ZZ=             -8.8638
   XY=              0.0000   XZ=              0.0000   YZ=              0.0000

  Exact polarizability:   5.523  -0.000   5.523   0.000   0.000  11.906
 Approx polarizability:   6.401  -0.000   6.401  -0.000  -0.000  20.180

                      1
                     SGG
 Frequencies --   1042.0370
 Red. masses --     18.9984
 Frc consts  --     12.1544
 IR Inten    --      0.0000

 - Thermochemistry -
 -------------------
 Temperature   298.150 Kelvin.  Pressure   1.00000 Atm.
 Atom     1 has atomic number  9 and mass  18.99840

 Molecular mass:    37.99681 amu.
 Principal axes and moments of inertia in atomic units:
                           1         2         3
     Eigenvalues --     0.00000  65.94336  65.94336
           X           -0.00000   1.00000  -0.00000
           Y            0.00000   0.00000   1.00000
           Z            1.00000   0.00000  -0.00000
 This molecule is a prolate symmetric top.
 Rotational symmetry number  2.
 Rotational temperature (Kelvin)      1.31346
 Rotational constant (GHZ):          27.368050
 Zero-point vibrational energy       6232.8 (Joules/Mol)
                                    1.48967 (Kcal/Mol)
 Vibrational temperatures:   1499.26
          (Kelvin)

 Zero-point correction=                           0.002374 (Hartree/Particle)
 Thermal correction to Energy=                    0.004766
 Thermal correction to Enthalpy=                  0.005710
 Thermal correction to Gibbs Free Energy=        -0.017240
 Sum of electronic and zero-point Energies=           -199.578737
 Sum of electronic and thermal Energies=              -199.576345
 Sum of electronic and thermal Enthalpies=            -199.575401
 Sum of electronic and thermal Free Energies=         -199.598351

                     E (Thermal)             CV                S
                      KCal/Mol        Cal/Mol-Kelvin    Cal/Mol-Kelvin
 Total                    2.991              5.301             48.303
 Electronic               0.000              0.000              0.000
 Translational            0.889              2.981             36.834
 Rotational               0.592              1.987             11.390
 Vibrational              1.509              0.333              0.079

 Optimization completed.
    -- Stationary point found.
 Normal termination of Gaussian 16 at Mon Nov  4 13:16:43 2024.
