 Gaussian 16, Revision A.03,
 Gaussian 16:  AS64L-G16RevA.03 25-Dec-2016

 ----------------------------------------------------------------------
 # B3LYP/6-311++G(3df,3pd) SCAN SCF=VERYTIGHT INT=ULTRAFINE # GEOM=NOCR
 OWD NOSYMM POP=ALWAYS
 ----------------------------------------------------------------------

 ------------
 F2 Bond Scan
 ------------
 Symbolic Z-matrix:
 Charge =  0 Multiplicity = 1

 SCF Done:  E(RB3LYP) =  -198.994379769     A.U. after    9 cycles
 SCF Done:  E(RB3LYP) =  -199.034095542     A.U. after    7 cycles
 SCF Done:  E(RB3LYP) =  -199.071400049     A.U. after    7 cycles
 SCF Done:  E(RB3LYP) =  -199.106436453     A.U. after    7 cycles
 SCF Done:  E(RB3LYP) =  -199.139339128     A.U. after    7 cycles
 SCF Done:  E(RB3LYP) =  -199.170234161     A.U. after    7 cycles
 SCF Done:  E(RB3LYP) =  -199.199239832     A.U. after    7 cycles
 SCF Done:  E(RB3LYP) =  -199.226467101     A.U. after    7 cycles
 SCF Done:  E(RB3LYP) =  -199.252020083     A.U. after    7 cycles
 SCF Done:  E(RB3LYP) =  -199.275996518     A.U. after    7 cycles
 SCF Done:  E(RB3LYP) =  -199.454732124     A.U. after    8 cycles
 SCF Done:  E(RB3LYP) =  -199.453679079     A.U. after    6 cycles
 SCF Done:  E(RB3LYP) =  -199.452640827     A.U. after    7 cycles
 SCF Done:  E(RB3LYP) =  -199.451617261     A.U. after    8 cycles
 SCF Done:  E(RB3LYP) =  -199.450608271     A.U. after    6 cycles
 SCF Done:  E(RB3LYP) =  -199.449613742     A.U. after    7 cycles
 SCF Done:  E(RB3LYP) =  -199.448633557     A.U. after    8 cycles
 SCF Done:  E(RB3LYP) =  -199.447667597     A.U. after    6 cycles
 SCF Done:  E(RB3LYP) =  -199.446715741     A.U. after    7 cycles

                         Z-Matrix orientation:
 ---------------------------------------------------------------------
 Center     Atomic      Atomic             Coordinates (Angstroms)
 Number     Number       Type             X           Y           Z
 ---------------------------------------------------------------------
      1          9           0        0.000000    0.000000    0.000000
      2          9           0        0.000000    0.000000    2.394258
 ---------------------------------------------------------------------

 SCF Done:  E(RB3LYP) =  -199.445777866     A.U. after    7 cycles

 Alpha  occ. eigenvalues --  -24.81083 -24.81082  -1.22196  -1.20873  -0.49382
 Alpha  occ. eigenvalues --   -0.49184  -0.49184  -0.48114  -0.48114
 Alpha virt. eigenvalues --   -0.39618   0.09696   0.13715   0.16617   0.16617
 Alpha virt. eigenvalues --    0.23777   0.23838   0.23838   0.36569   0.82305
 Alpha virt. eigenvalues --    0.91447   0.91447   1.01158   1.01158   1.05046

 Mulliken charges:
               1
     1  F   -0.000000
     2  F    0.000000
 Sum of Mulliken charges =  -0.00000

 Dipole moment (field-independent basis, Debye):
    X=              0.0000    Y=             -0.0000    Z=              0.0000  Tot=              0.0000
 Quadrupole moment (field-independent basis, Debye-Ang):
   XX=            -10.0930   YY=            -10.0930   ZZ=             -7.9040
   XY=              0.0000   XZ=              0.0000   YZ=              0.0000

 Normal termination of Gaussian 16 at Mon Nov  4 13:30:15 2024.
