 Gaussian 16, Revision A.03,
 Gaussian 16:  AS64L-G16RevA.03 25-Dec-2016

 ---------------------------------------------------------------
 # B3LYP/6-311++G(3df,3pd) OPT=TIGHT SCF=VERYTIGHT INT=ULTRAFINE
 ---------------------------------------------------------------

 -----------
 F2 Geom Opt
 -----------
 Symbolic Z-matrix:
 Charge =  0 Multiplicity = 1

 SCF Done:  E(RB3LYP) =  -199.517211236     A.U. after    9 cycles
 SCF Done:  E(RB3LYP) =  -199.573819426     A.U. after   10 cycles
 SCF Done:  E(RB3LYP) =  -199.580846540     A.U. after   10 cycles
 SCF Done:  E(RB3LYP) =  -199.581110919     A.U. after    7 cycles
 SCF Done:  E(RB3LYP) =  -199.581110937     A.U. after    4 cycles
 Optimization completed.
    -- Stationary point found.

                         Standard orientation:
 ---------------------------------------------------------------------
 Center     Atomic      Atomic             Coordinates (Angstroms)
 Number     Number       Type             X           Y           Z
 ---------------------------------------------------------------------
      1          9           0        0.000000    0.000000    0.697129
      2          9           0        0.000000    0.000000   -0.697129
 ---------------------------------------------------------------------

 The electronic state is 1-SGG.
 Alpha  occ. eigenvalues --  -24.79758 -24.79756  -1.36854  -1.11666  -0.61901
 Alpha  occ. eigenvalues --   -0.55631  -0.55631  -0.42208  -0.42208
 Alpha virt. eigenvalues --   -0.15683   0.10758   0.15580   0.17798   0.17798
 Alpha virt. eigenvalues --    0.25325   0.25668   0.25668   0.41271   0.90089
 Alpha virt. eigenvalues --    0.90089   0.96939   0.96939   1.16523   1.17741

 Mulliken charges:
               1
     1  F   -0.000000
     2  F   -0.000000
 Sum of Mulliken charges =  -0.00000

 Dipole moment (field-independent basis, Debye):
    X=             -0.0000    Y=             -0.0000    Z=              0.0000  Tot=              0.0000
 Quadrupole moment (field-independent basis, Debye-Ang):
   XX=             -9.7543   YY=             -9.7543   ZZ=             -8.8638
   XY=              0.0000   XZ=              0.0000   YZ=              0.0000

 Normal termination of Gaussian 16 at Mon Nov  4 13:15:11 2024.
