                         Program Version 6.0.0  -   RELEASE  -
|  1> ! HF 6-311g(d,p) opt freq
|  2>
|  3> * xyz 0 1
|  4>   H      1.8853     -0.0401      1.0854
|  5>   C      1.2699     -0.0477      0.1772
|  6>   H      1.5840      0.8007     -0.4449
|  7>   H      1.5089     -0.9636     -0.3791
|  8>   C     -0.2033      0.0282      0.5345
|  9>   H     -0.4993     -0.8287      1.1714
| 10>   H     -0.4235      0.9513      1.1064
| 11>   O     -0.9394      0.0157     -0.6674
| 12>   H     -1.8540      0.0626     -0.4252
| 13> *
| 14>
| 15>                          ****END OF INPUT****
 Total Charge           Charge          ....    0
 Multiplicity           Mult            ....    1
 Number of Electrons    NEL             ....   26
FINAL SINGLE POINT ENERGY      -154.124384864557
FINAL SINGLE POINT ENERGY      -154.125626046529
FINAL SINGLE POINT ENERGY      -154.125719969492
FINAL SINGLE POINT ENERGY      -154.125743635961
                    ***********************HURRAY********************

CARTESIAN COORDINATES (ANGSTROEM)
---------------------------------
  H      1.882941   -0.040412    1.082244
  C      1.272302   -0.047595    0.183823
  H      1.554945    0.798186   -0.434113
  H      1.480202   -0.957496   -0.369288
  C     -0.197852    0.028090    0.538146
  H     -0.472160   -0.818067    1.167080
  H     -0.397334    0.938387    1.102371
  O     -0.938442    0.015697   -0.654707
  H     -1.856002    0.061611   -0.457257

 Multiplicity           Mult            ....    1
 Number of Electrons    NEL             ....   26
 Basis Dimension        Dim             ....   90

ORBITAL ENERGIES
----------------

  NO   OCC          E(Eh)            E(eV)
   0   2.0000     -20.540081      -558.9240
   1   2.0000     -11.269663      -306.6631
   2   2.0000     -11.208344      -304.9946
   3   2.0000      -1.362591       -37.0780
   4   2.0000      -1.012321       -27.5466
   5   2.0000      -0.836318       -22.7574
   6   2.0000      -0.704448       -19.1690
   7   2.0000      -0.646377       -17.5888
   8   2.0000      -0.570568       -15.5259
   9   2.0000      -0.534039       -14.5319
  10   2.0000      -0.525125       -14.2894
  11   2.0000      -0.483659       -13.1610
  12   2.0000      -0.437499       -11.9050
  13   0.0000       0.154667         4.2087
  14   0.0000       0.184345         5.0163
  15   0.0000       0.209157         5.6914
  16   0.0000       0.211813         5.7637
  17   0.0000       0.236955         6.4479

MULLIKEN ATOMIC CHARGES
-----------------------
   0 H :    0.080921
   1 C :   -0.258014
   2 H :    0.096476
   3 H :    0.096469
   4 C :    0.089705
   5 H :    0.062511
   6 H :    0.062518
   7 O :   -0.475468
   8 H :    0.244882
Sum of atomic charges:    0.0000000

LOEWDIN ATOMIC CHARGES
----------------------
   0 H :   -0.001077
   1 C :    0.011784
   2 H :    0.001231
   3 H :    0.001227
   4 C :    0.079232
   5 H :   -0.023754
   6 H :   -0.023754
   7 O :   -0.057390
   8 H :    0.012501

  Mayer bond orders larger than 0.100000
B(  0-H ,  1-C ) :   0.9839 B(  1-C ,  2-H ) :   0.9838 B(  1-C ,  3-H ) :   0.9838
B(  1-C ,  4-C ) :   0.9998 B(  4-C ,  5-H ) :   0.9757 B(  4-C ,  6-H ) :   0.9757
B(  4-C ,  7-O ) :   0.9234 B(  7-O ,  8-H ) :   0.9614

FINAL SINGLE POINT ENERGY      -154.125744041813

DIPOLE MOMENT
-------------

Method             : SCF
Type of density    : Electron Density
Multiplicity       :   1
Irrep              :   0
Energy             :  -154.1257440418133910 Eh
Relativity type    :
Basis              : AO
                                X                 Y                 Z
Electronic contribution:     -2.309020502       0.050546440      -1.299207073
Nuclear contribution   :      2.030759194      -0.016329130       1.914753048
                        -----------------------------------------
Total Dipole Moment    :     -0.278261308       0.034217309       0.615545974
                        -----------------------------------------
Magnitude (a.u.)       :      0.676385265
Magnitude (Debye)      :      1.719234713

VIBRATIONAL FREQUENCIES
-----------------------

Scaling factor for frequencies =  1.000000000  (already applied!)

     0:       0.00 cm**-1
     1:       0.00 cm**-1
     2:       0.00 cm**-1
     3:       0.00 cm**-1
     4:       0.00 cm**-1
     5:       0.00 cm**-1
     6:     273.47 cm**-1
     7:     310.74 cm**-1
     8:     446.89 cm**-1
     9:     881.81 cm**-1
    10:     969.67 cm**-1
    11:    1126.44 cm**-1
    12:    1206.69 cm**-1
    13:    1285.26 cm**-1
    14:    1383.10 cm**-1
    15:    1415.53 cm**-1
    16:    1522.42 cm**-1
    17:    1594.10 cm**-1
    18:    1596.59 cm**-1
    19:    1618.98 cm**-1
    20:    1656.48 cm**-1
    21:    3134.10 cm**-1
    22:    3158.20 cm**-1
    23:    3168.34 cm**-1
    24:    3231.47 cm**-1
    25:    3241.92 cm**-1
    26:    4185.74 cm**-1

IR SPECTRUM
-----------

 Mode   freq       eps      Int      T**2         TX        TY        TZ
       cm**-1   L/(mol*cm) km/mol    a.u.
----------------------------------------------------------------------------
  6:    273.47   0.006630   33.50  0.007565  ( 0.003705  0.086841 -0.003175)
  7:    310.74   0.021740  109.86  0.021832  ( 0.006270  0.147524 -0.005455)
  8:    446.89   0.002373   11.99  0.001657  (-0.033839  0.000589 -0.022614)
  9:    881.81   0.000036    0.18  0.000013  ( 0.000162  0.003562 -0.000126)
 10:    969.67   0.001379    6.97  0.000444  (-0.012519 -0.000091 -0.016939)
 11:   1126.44   0.011394   57.58  0.003157  (-0.036745 -0.000002 -0.042502)
 12:   1206.69   0.006177   31.21  0.001597  ( 0.023673  0.000179  0.032201)
 13:   1285.26   0.001312    6.63  0.000319  (-0.000779 -0.017824  0.000609)
 14:   1383.10   0.022425  113.33  0.005060  ( 0.033135  0.000899  0.062936)
 15:   1415.53   0.000055    0.28  0.000012  ( 0.000121  0.003471 -0.000181)
 16:   1522.42   0.000111    0.56  0.000023  ( 0.004771 -0.000202  0.000084)
 17:   1594.10   0.002682   13.55  0.000525  ( 0.022894 -0.000902  0.000117)
 18:   1596.59   0.000899    4.54  0.000176  ( 0.000471  0.013236 -0.000486)
 19:   1618.98   0.000657    3.32  0.000127  ( 0.006530 -0.000637 -0.009147)
 20:   1656.48   0.000473    2.39  0.000089  (-0.008014  0.000159 -0.004991)
 21:   3134.10   0.015839   80.04  0.001577  (-0.016331  0.002027  0.036142)
 22:   3158.20   0.014428   72.91  0.001426  ( 0.001593  0.037698 -0.001393)
 23:   3168.34   0.004183   21.14  0.000412  (-0.019738  0.000632 -0.004696)
 24:   3231.47   0.010706   54.11  0.001034  ( 0.004508  0.000957  0.031823)
 25:   3241.92   0.012163   61.47  0.001171  ( 0.001455  0.034164 -0.001236)
 26:   4185.74   0.010003   50.55  0.000746  (-0.027284  0.001153  0.000141)

--------------------------
THERMOCHEMISTRY AT 298.15K
--------------------------

Temperature         ...   298.15 K
Pressure            ...     1.00 atm
Total Mass          ...    46.07 AMU
Quasi RRHO          ...     True
Cut-Off Frequency   ...     1.00 cm^-1

Throughout the following assumptions are being made:
  (1) The electronic state is orbitally nondegenerate
  (2) There are no thermally accessible electronically excited states
  (3) Hindered rotations indicated by low frequency modes are not
      treated as such but are treated as vibrations and this may
      cause some error
  (4) All equations used are the standard statistical mechanics
      equations for an ideal gas
  (5) All vibrations are strictly harmonic

freq.     273.47  E(vib)   ...       0.29
freq.     310.74  E(vib)   ...       0.26
freq.     446.89  E(vib)   ...       0.17
freq.     881.81  E(vib)   ...       0.04
freq.     969.67  E(vib)   ...       0.03
freq.    1126.44  E(vib)   ...       0.01
freq.    1206.69  E(vib)   ...       0.01
freq.    1285.26  E(vib)   ...       0.01
freq.    1383.10  E(vib)   ...       0.01
freq.    1415.53  E(vib)   ...       0.00
freq.    1522.42  E(vib)   ...       0.00
freq.    1594.10  E(vib)   ...       0.00
freq.    1596.59  E(vib)   ...       0.00
freq.    1618.98  E(vib)   ...       0.00
freq.    1656.48  E(vib)   ...       0.00
freq.    3134.10  E(vib)   ...       0.00
freq.    3158.20  E(vib)   ...       0.00
freq.    3168.34  E(vib)   ...       0.00
freq.    3231.47  E(vib)   ...       0.00
freq.    3241.92  E(vib)   ...       0.00
freq.    4185.74  E(vib)   ...       0.00

------------
INNER ENERGY
------------

The inner energy is: U= E(el) + E(ZPE) + E(vib) + E(rot) + E(trans)
    E(el)   - is the total energy from the electronic structure calculation
              = E(kin-el) + E(nuc-el) + E(el-el) + E(nuc-nuc)
    E(ZPE)  - the the zero temperature vibrational energy from the frequency calculation
    E(vib)  - the the finite temperature correction to E(ZPE) due to population
              of excited vibrational states
    E(rot)  - is the rotational thermal energy
    E(trans)- is the translational thermal energy

Summary of contributions to the inner energy U:
Electronic energy                ...   -154.12574404 Eh
Zero point energy                ...      0.08522151 Eh      53.48 kcal/mol
Thermal vibrational correction   ...      0.00130929 Eh       0.82 kcal/mol
Thermal rotational correction    ...      0.00141627 Eh       0.89 kcal/mol
Thermal translational correction ...      0.00141627 Eh       0.89 kcal/mol
-----------------------------------------------------------------------
Total thermal energy                   -154.03638070 Eh

Summary of corrections to the electronic energy:
(perhaps to be used in another calculation)
Total thermal correction                  0.00414184 Eh       2.60 kcal/mol
Non-thermal (ZPE) correction              0.08522151 Eh      53.48 kcal/mol
-----------------------------------------------------------------------
Total correction                          0.08936335 Eh      56.08 kcal/mol

--------
ENTHALPY
--------

The enthalpy is H = U + kB*T
                kB is Boltzmann's constant
Total thermal energy              ...   -154.03638070 Eh
Thermal Enthalpy correction       ...      0.00094421 Eh       0.59 kcal/mol
-----------------------------------------------------------------------
Total Enthalpy                    ...   -154.03543649 Eh

Note: Only C1 symmetry has been detected, increase convergence thresholds
      if your molecule has a higher symmetry. Symmetry factor of 1.0 is
      used for the rotational entropy correction.

Note: Rotational entropy computed according to Herzberg
Infrared and Raman Spectra, Chapter V,1, Van Nostrand Reinhold, 1945
Point Group:  C1, Symmetry Number:   1
Rotational constants in cm-1:     1.198241     0.315926     0.275490

Vibrational entropy computed according to the QRRHO of S. Grimme
Chem.Eur.J. 2012 18 9955 using a reference frequency of 100.0 cm-1

-------
ENTROPY
-------

The entropy contributions are T*S = T*(S(el)+S(vib)+S(rot)+S(trans))
     S(el)   - electronic entropy
     S(vib)  - vibrational entropy
     S(rot)  - rotational entropy
     S(trans)- translational entropy
The entropies will be listed as multiplied by the temperature to get
units of energy

Electronic entropy                ...      0.00000000 Eh      0.00 kcal/mol
Vibrational entropy               ...      0.00199797 Eh      1.25 kcal/mol
Rotational entropy                ...      0.01057802 Eh      6.64 kcal/mol
Translational entropy             ...      0.01777359 Eh     11.15 kcal/mol
-----------------------------------------------------------------------
Final entropy term                ...      0.03034957 Eh     19.04 kcal/mol

In case the symmetry of your molecule has not been determined correctly
or in case you have a reason to use a different symmetry number we print
out the resulting rotational entropy values for sn=1,12:

 non-linear molecules -----------------------------------
|  sn= 1 | S(rot)=       0.01057802 Eh      6.64 kcal/mol|
|  sn= 2 | S(rot)=       0.00992356 Eh      6.23 kcal/mol|
|  sn= 3 | S(rot)=       0.00954073 Eh      5.99 kcal/mol|
|  sn= 4 | S(rot)=       0.00926910 Eh      5.82 kcal/mol|
|  sn= 5 | S(rot)=       0.00905842 Eh      5.68 kcal/mol|
|  sn= 6 | S(rot)=       0.00888627 Eh      5.58 kcal/mol|
|  sn= 7 | S(rot)=       0.00874073 Eh      5.48 kcal/mol|
|  sn= 8 | S(rot)=       0.00861465 Eh      5.41 kcal/mol|
|  sn= 9 | S(rot)=       0.00850344 Eh      5.34 kcal/mol|
|  sn=10 | S(rot)=       0.00840396 Eh      5.27 kcal/mol|
|  sn=11 | S(rot)=       0.00831397 Eh      5.22 kcal/mol|
|  sn=12 | S(rot)=       0.00823182 Eh      5.17 kcal/mol|
 linear molecules ---------------------------------------
|  Dinfh | S(rot)=       0.00654305 Eh      4.11 kcal/mol|
|  Cinfv | S(rot)=       0.00719751 Eh      4.52 kcal/mol|
 --------------------------------------------------------

-------------------
GIBBS FREE ENERGY
-------------------

The Gibbs free energy is G = H - T*S

Total enthalpy                    ...   -154.03543649 Eh
Total entropy correction          ...     -0.03034957 Eh    -19.04 kcal/mol
-----------------------------------------------------------------------
Final Gibbs free energy         ...   -154.06578606 Eh

For completeness - the Gibbs free energy minus the electronic energy
G-E(el)                           ...      0.05995798 Eh     37.62 kcal/mol

                             ****ORCA TERMINATED NORMALLY****
TOTAL RUN TIME: 0 days 0 hours 1 minutes 1 seconds 426 msec
