 Gaussian 16, Revision A.03,
 Gaussian 16:  ES64L-G16RevA.03 25-Dec-2016

 ----------------------------
 #p opt freq hf/6-311++g(d,p)
 ----------------------------

 -------------------
 Title Card Required
 -------------------
 Symbolic Z-matrix:
 Charge =  0 Multiplicity = 1

 SCF Done:  E(RHF) =  -79.2501255982     A.U. after    9 cycles
 SCF Done:  E(RHF) =  -79.2518536809     A.U. after    9 cycles
 SCF Done:  E(RHF) =  -79.2519326330     A.U. after    7 cycles
 SCF Done:  E(RHF) =  -79.2519346324     A.U. after    6 cycles
 Optimization completed.
    -- Stationary point found.
 Normal termination of Gaussian 16 at Wed Sep 11 13:50:51 2024.

 ----------------------------------------------------------------------
 #P Geom=AllCheck Guess=TCheck SCRF=Check GenChk RHF/6-311++G(d,p) Freq
 ----------------------------------------------------------------------

 Structure from the checkpoint file:  "c2h6_e.chk"
 -------------------
 Title Card Required
 -------------------
 Charge =  0 Multiplicity = 1

                         Standard orientation:
 ---------------------------------------------------------------------
 Center     Atomic      Atomic             Coordinates (Angstroms)
 Number     Number       Type             X           Y           Z
 ---------------------------------------------------------------------
      1          6           0        0.758287    0.007271    0.088795
      2          1           0        1.133882    1.022834    0.176227
      3          1           0        1.257331   -0.457527   -0.756783
      4          1           0        1.054201   -0.532271    0.984013
      5          6           0       -0.758287   -0.007271   -0.088795
      6          1           0       -1.054201    0.532270   -0.984014
      7          1           0       -1.133882   -1.022834   -0.176226
      8          1           0       -1.257331    0.457529    0.756783
 ---------------------------------------------------------------------

 SCF Done:  E(RHF) =  -79.2519346324     A.U. after    1 cycles

 The electronic state is 1-A.
 Alpha  occ. eigenvalues --  -11.21025 -11.20965  -1.01924  -0.84389  -0.59802
 Alpha  occ. eigenvalues --   -0.59802  -0.50948  -0.48794  -0.48794
 Alpha virt. eigenvalues --    0.04416   0.05962   0.06784   0.06784   0.09922
 Alpha virt. eigenvalues --    0.09922   0.14341   0.14914   0.14914   0.17522
 Alpha virt. eigenvalues --    0.19650   0.20330   0.20330   0.20652   0.30208

 Mulliken charges:
               1
     1  C   -0.340948
     2  H    0.113649
     3  H    0.113649
     4  H    0.113649
     5  C   -0.340948
     6  H    0.113649
     7  H    0.113649
     8  H    0.113649
 Sum of Mulliken charges =  -0.00000

 Dipole moment (field-independent basis, Debye):
    X=              0.0000    Y=             -0.0000    Z=             -0.0000  Tot=              0.0000
 Quadrupole moment (field-independent basis, Debye-Ang):
   XX=            -15.6649   YY=            -14.9605   ZZ=            -14.9701
   XY=             -0.0068   XZ=             -0.0825   YZ=             -0.0008

  Exact polarizability:  26.291   0.018  24.374   0.225   0.002  24.400
 Approx polarizability:  20.413  -0.007  21.159  -0.087  -0.001  21.149

                      1                      2                      3
                      A                      A                      A
 Frequencies --    329.2566               880.8520               880.8520
 Red. masses --      1.0078                 1.0565                 1.0565
 Frc consts  --      0.0644                 0.4830                 0.4830
 IR Inten    --      0.0000                 2.2070                 2.2070
 Raman Activ --      0.0000                 0.0000                 0.0000

                      4                      5                      6
                      A                      A                      A
 Frequencies --   1051.5017              1319.7139              1319.7139
 Red. masses --      3.1122                 1.4583                 1.4583
 Frc consts  --      2.0274                 1.4965                 1.4965
 IR Inten    --      0.0000                 0.0000                 0.0000
 Raman Activ --     16.7189                 0.7140                 0.7140

                      7                      8                      9
                      A                      A                      A
 Frequencies --   1516.9800              1549.7258              1615.1197
 Red. masses --      1.1988                 1.2773                 1.0203
 Frc consts  --      1.6253                 1.8074                 1.5681
 IR Inten    --      0.5228                 0.0000                 0.0000
 Raman Activ --      0.0000                 1.1310                22.0026

                     10                     11                     12
                      A                      A                      A
 Frequencies --   1615.1197              1618.5639              1618.5639
 Red. masses --      1.0203                 1.0629                 1.0629
 Frc consts  --      1.5681                 1.6405                 1.6405
 IR Inten    --      0.0000                 8.5997                 8.5997
 Raman Activ --     22.0026                 0.0000                 0.0000

                     13                     14                     15
                      A                      A                      A
 Frequencies --   3154.6232              3162.1074              3201.3504
 Red. masses --      1.0337                 1.0378                 1.1025
 Frc consts  --      6.0612                 6.1138                 6.6573
 IR Inten    --     77.0339                 0.0000                 0.0000
 Raman Activ --      0.0000               303.2045               152.9162

                     16                     17                     18
                      A                      A                      A
 Frequencies --   3201.3504              3227.7872              3227.7873
 Red. masses --      1.1025                 1.1033                 1.1033
 Frc consts  --      6.6573                 6.7724                 6.7724
 IR Inten    --      0.0000               106.1416               106.1416
 Raman Activ --    152.9162                 0.0000                 0.0000

 - Thermochemistry -
 -------------------
 Temperature   298.150 Kelvin.  Pressure   1.00000 Atm.
 Atom     1 has atomic number  6 and mass  12.00000

 Molecular mass:    30.04695 amu.
 Principal axes and moments of inertia in atomic units:
                           1         2         3
     Eigenvalues --    22.14988  89.91134  89.91134
           X            0.99317  -0.00000  -0.11669
           Y            0.00952   0.99666   0.08105
           Z            0.11630  -0.08161   0.98986
 This molecule is a prolate symmetric top.
 Rotational symmetry number  1.
 Rotational temperatures (Kelvin)      3.91036     0.96333     0.96333
 Rotational constants (GHZ):          81.47861    20.07245    20.07245
 Zero-point vibrational energy     206301.8 (Joules/Mol)
                                   49.30732 (Kcal/Mol)
 Warning -- explicit consideration of   1 degrees of freedom as
           vibrations may cause significant error
 Vibrational temperatures:    473.73  1267.35  1267.35  1512.88  1898.77
          (Kelvin)           1898.77  2182.60  2229.71  2323.80  2323.80
                             2328.75  2328.75  4538.80  4549.57  4606.03
                             4606.03  4644.07  4644.07

 Zero-point correction=                           0.078576 (Hartree/Particle)
 Thermal correction to Energy=                    0.081981
 Thermal correction to Enthalpy=                  0.082925
 Thermal correction to Gibbs Free Energy=         0.055512
 Sum of electronic and zero-point Energies=            -79.173358
 Sum of electronic and thermal Energies=               -79.169954
 Sum of electronic and thermal Enthalpies=             -79.169009
 Sum of electronic and thermal Free Energies=          -79.196422

                     E (Thermal)             CV                S
                      KCal/Mol        Cal/Mol-Kelvin    Cal/Mol-Kelvin
 Total                   51.444              9.566             57.695
 Electronic               0.000              0.000              0.000
 Translational            0.889              2.981             36.134
 Rotational               0.889              2.981             19.821
 Vibrational             49.666              3.604              1.740
 Vibration     1          0.712              1.617              1.264

 Optimization completed.
    -- Stationary point found.
 Normal termination of Gaussian 16 at Wed Sep 11 13:51:01 2024.
