 Gaussian 16, Revision A.03,
 Gaussian 16:  AS64L-G16RevA.03 25-Dec-2016

 ----------------------------------------------------------
 # B3LYP/6-311++G(3df,3pd) FREQ SCF=VERYTIGHT INT=ULTRAFINE
 ----------------------------------------------------------

 ---------------------------
 Trans_Acetic_acid freq calc
 ---------------------------
 Symbolic Z-matrix:
 Charge =  0 Multiplicity = 1

                         Standard orientation:
 ---------------------------------------------------------------------
 Center     Atomic      Atomic             Coordinates (Angstroms)
 Number     Number       Type             X           Y           Z
 ---------------------------------------------------------------------
      1          8           0        0.793880   -1.030647   -0.000000
      2          1           0        1.731766   -0.791459   -0.000000
      3          6           0        0.089332    0.127011    0.000000
      4          8           0        0.622819    1.204351    0.000000
      5          6           0       -1.391125   -0.126287    0.000000
      6          1           0       -1.922741    0.819087   -0.000010
      7          1           0       -1.665932   -0.710808   -0.877701
      8          1           0       -1.665931   -0.710793    0.877711
 ---------------------------------------------------------------------

 SCF Done:  E(RB3LYP) =  -229.181571487     A.U. after   11 cycles

 The electronic state is 1-A.
 Alpha  occ. eigenvalues --  -19.17981 -19.12242 -10.31444 -10.19013  -1.11946
 Alpha  occ. eigenvalues --   -1.03011  -0.76988  -0.62381  -0.50313  -0.49112
 Alpha  occ. eigenvalues --   -0.48207  -0.42288  -0.40900  -0.40468  -0.33782
 Alpha  occ. eigenvalues --   -0.29255
 Alpha virt. eigenvalues --   -0.01528  -0.00989   0.00754   0.03316   0.03513
 Alpha virt. eigenvalues --    0.05252   0.07241   0.08128   0.08772   0.09333
 Alpha virt. eigenvalues --    0.09809   0.11781   0.12121   0.15653   0.16575

 Mulliken charges:
               1
     1  O   -0.728658
     2  H    0.468483
     3  C    1.077387
     4  O   -0.707409
     5  C   -0.278192
     6  H    0.038935
     7  H    0.064727
     8  H    0.064727
 Sum of Mulliken charges =  -0.00000

 Dipole moment (field-independent basis, Debye):
    X=             -0.7941    Y=             -1.5942    Z=              0.0000  Tot=              1.7811
 Quadrupole moment (field-independent basis, Debye-Ang):
   XX=            -19.3031   YY=            -28.8081   ZZ=            -23.3504
   XY=             -2.1798   XZ=              0.0000   YZ=             -0.0000

  Exact polarizability:  38.898   0.817  37.238   0.000  -0.000  26.338
 Approx polarizability:  48.271   2.824  55.904  -0.000  -0.000  36.749

                      1                      2                      3
                      A                      A                      A
 Frequencies --     79.5218               425.3175               547.4122
 Red. masses --      1.0851                 2.8973                 1.5004
 Frc consts  --      0.0040                 0.3088                 0.2649
 IR Inten    --      0.1722                 4.6786                26.8804

                      4                      5                      6
                      A                      A                      A
 Frequencies --    586.8291               666.1427               859.2357
 Red. masses --      4.2727                 1.5450                 3.9327
 Frc consts  --      0.8669                 0.4039                 1.7107
 IR Inten    --     37.1952                89.7123                 3.9330

                      7                      8                      9
                      A                      A                      A
 Frequencies --    999.6290              1070.3136              1203.4564
 Red. masses --      1.6436                 1.8170                 1.9769
 Frc consts  --      0.9677                 1.2264                 1.6869
 IR Inten    --     76.8313                 7.3484               214.4241

                     10                     11                     12
                      A                      A                      A
 Frequencies --   1336.9204              1409.5858              1472.9897
 Red. masses --      1.8484                 1.4585                 1.0510
 Frc consts  --      1.9465                 1.7074                 1.3436
 IR Inten    --     34.1029                45.3903                16.2828

                     13                     14                     15
                      A                      A                      A
 Frequencies --   1478.5037              1819.5358              3053.6142
 Red. masses --      1.0451                 9.2049                 1.0369
 Frc consts  --      1.3460                17.9553                 5.6968
 IR Inten    --      8.5699               344.4341                 1.5653

                     16                     17                     18
                      A                      A                      A
 Frequencies --   3111.3564              3163.7826              3753.1177
 Red. masses --      1.0996                 1.1028                 1.0642
 Frc consts  --      6.2715                 6.5034                 8.8316
 IR Inten    --      3.3492                 4.2267                60.5290

 - Thermochemistry -
 -------------------
 Temperature   298.150 Kelvin.  Pressure   1.00000 Atm.
 Atom     1 has atomic number  8 and mass  15.99491

 Molecular mass:    60.02113 amu.
 Principal axes and moments of inertia in atomic units:
                           1         2         3
     Eigenvalues --   158.53680 190.42169 337.86825
           X            0.99847  -0.05527   0.00000
           Y            0.05527   0.99847  -0.00000
           Z           -0.00000   0.00000   1.00000
 This molecule is an asymmetric top.
 Rotational symmetry number  1.
 Rotational temperatures (Kelvin)      0.54633     0.45485     0.25635
 Rotational constants (GHZ):          11.38374     9.47760     5.34155
 Zero-point vibrational energy     161718.8 (Joules/Mol)
                                   38.65171 (Kcal/Mol)
 Warning -- explicit consideration of   4 degrees of freedom as
           vibrations may cause significant error
 Vibrational temperatures:    114.41   611.94   787.60   844.32   958.43
          (Kelvin)           1236.25  1438.24  1539.94  1731.51  1923.53
                             2028.08  2119.30  2127.24  2617.91  4393.47
                             4476.55  4551.98  5399.90

 Zero-point correction=                           0.061595 (Hartree/Particle)
 Thermal correction to Energy=                    0.066147
 Thermal correction to Enthalpy=                  0.067091
 Thermal correction to Gibbs Free Energy=         0.034487
 Sum of electronic and zero-point Energies=           -229.119976
 Sum of electronic and thermal Energies=              -229.115424
 Sum of electronic and thermal Enthalpies=            -229.114480
 Sum of electronic and thermal Free Energies=         -229.147084

                     E (Thermal)             CV                S
                      KCal/Mol        Cal/Mol-Kelvin    Cal/Mol-Kelvin
 Total                   41.508             14.305             68.621
 Electronic               0.000              0.000              0.000
 Translational            0.889              2.981             38.196
 Rotational               0.889              2.981             23.838
 Vibrational             39.730              8.344              6.587
 Vibration     1          0.600              1.963              3.903
 Vibration     2          0.787              1.415              0.874
 Vibration     3          0.903              1.145              0.550
 Vibration     4          0.944              1.060              0.473

 Optimization completed.
    -- Stationary point found.
 Normal termination of Gaussian 16 at Tue Nov  5 15:33:35 2024.
