 Gaussian 16, Revision A.03,
 Gaussian 16:  ES64L-G16RevA.03 25-Dec-2016

 --------------------------------------------
 #p opt freq hf/6-311g(d,p) geom=connectivity
 --------------------------------------------

 -------------------
 Title Card Required
 -------------------
 Symbolic Z-matrix:
 Charge =  0 Multiplicity = 1

 SCF Done:  E(RHF) =  -40.2084489180     A.U. after    8 cycles
 SCF Done:  E(RHF) =  -40.2090101762     A.U. after    7 cycles
 SCF Done:  E(RHF) =  -40.2090117019     A.U. after    6 cycles
 Optimization completed.
    -- Stationary point found.
 Normal termination of Gaussian 16 at Tue Sep 10 12:45:29 2024.

 --------------------------------------------------------------------
 #P Geom=AllCheck Guess=TCheck SCRF=Check GenChk RHF/6-311G(d,p) Freq
 --------------------------------------------------------------------

 Structure from the checkpoint file:  "methan.chk"
 -------------------
 Title Card Required
 -------------------
 Charge =  0 Multiplicity = 1

                         Standard orientation:
 ---------------------------------------------------------------------
 Center     Atomic      Atomic             Coordinates (Angstroms)
 Number     Number       Type             X           Y           Z
 ---------------------------------------------------------------------
      1          6           0        0.000000    0.000000    0.000000
      2          1           0        0.625989    0.625989    0.625989
      3          1           0       -0.625989   -0.625989    0.625989
      4          1           0       -0.625989    0.625989   -0.625989
      5          1           0        0.625989   -0.625989   -0.625989
 ---------------------------------------------------------------------

 SCF Done:  E(RHF) =  -40.2090117019     A.U. after    1 cycles

 The electronic state is 1-A1.
 Alpha  occ. eigenvalues --  -11.20500  -0.94502  -0.54609  -0.54609  -0.54609
 Alpha virt. eigenvalues --    0.16226   0.23748   0.23748   0.23748   0.42768
 Alpha virt. eigenvalues --    0.42768   0.42768   0.75906   0.81458   0.81458
 Alpha virt. eigenvalues --    0.81458   0.93539   1.20256   1.20256   1.72132

 Mulliken charges:
               1
     1  C   -0.359605
     2  H    0.089901
     3  H    0.089901
     4  H    0.089901
     5  H    0.089901
 Sum of Mulliken charges =  -0.00000

 Dipole moment (field-independent basis, Debye):
    X=              0.0000    Y=             -0.0000    Z=              0.0000  Tot=              0.0000
 Quadrupole moment (field-independent basis, Debye-Ang):
   XX=             -8.4027   YY=             -8.4027   ZZ=             -8.4027
   XY=              0.0000   XZ=             -0.0000   YZ=              0.0000

  Exact polarizability:  13.195   0.000  13.195  -0.000   0.000  13.195
 Approx polarizability:  10.742   0.000  10.742  -0.000   0.000  10.742

                      1                      2                      3
                     T2                     T2                     T2
 Frequencies --   1453.2274              1453.2274              1453.2275
 Red. masses --      1.1789                 1.1789                 1.1789
 Frc consts  --      1.4669                 1.4669                 1.4669
 IR Inten    --     11.7364                11.7365                11.7365
 Raman Activ --      0.9831                 0.9831                 0.9831

                      4                      5                      6
                      E                      E                     A1
 Frequencies --   1667.7591              1667.7591              3150.7574
 Red. masses --      1.0078                 1.0078                 1.0078
 Frc consts  --      1.6516                 1.6516                 5.8947
 IR Inten    --      0.0000                 0.0000                 0.0000
 Raman Activ --     18.6540                18.6540               159.2057

                      7                      8                      9
                     T2                     T2                     T2
 Frequencies --   3253.9768              3253.9769              3253.9769
 Red. masses --      1.1017                 1.1017                 1.1017
 Frc consts  --      6.8731                 6.8731                 6.8731
 IR Inten    --     43.4204                43.4204                43.4204
 Raman Activ --     67.3103                67.3103                67.3103

 - Thermochemistry -
 -------------------
 Temperature   298.150 Kelvin.  Pressure   1.00000 Atm.
 Atom     1 has atomic number  6 and mass  12.00000

 Molecular mass:    16.03130 amu.
 Principal axes and moments of inertia in atomic units:
                           1         2         3
     Eigenvalues --    11.28254  11.28254  11.28254
           X            0.17406  -0.08109   0.98139
           Y            0.97001  -0.15758  -0.18506
           Z            0.16965   0.98417   0.05123
 This molecule is a spherical top.
 Rotational symmetry number 12.
 Rotational temperatures (Kelvin)      7.67681     7.67681     7.67681
 Rotational constants (GHZ):         159.95882   159.95882   159.95882
 Zero-point vibrational energy     123262.5 (Joules/Mol)
                                   29.46046 (Kcal/Mol)
 Vibrational temperatures:   2090.87  2090.87  2090.87  2399.53  2399.53
          (Kelvin)           4533.24  4681.75  4681.75  4681.75

 Zero-point correction=                           0.046948 (Hartree/Particle)
 Thermal correction to Energy=                    0.049804
 Thermal correction to Enthalpy=                  0.050748
 Thermal correction to Gibbs Free Energy=         0.029650
 Sum of electronic and zero-point Energies=            -40.162063
 Sum of electronic and thermal Energies=               -40.159208
 Sum of electronic and thermal Enthalpies=             -40.158264
 Sum of electronic and thermal Free Energies=          -40.179362

                     E (Thermal)             CV                S
                      KCal/Mol        Cal/Mol-Kelvin    Cal/Mol-Kelvin
 Total                   31.252              6.309             44.404
 Electronic               0.000              0.000              0.000
 Translational            0.889              2.981             34.261
 Rotational               0.889              2.981             10.088
 Vibrational             29.475              0.347              0.055

 Optimization completed.
    -- Stationary point found.
 Normal termination of Gaussian 16 at Tue Sep 10 12:45:31 2024.
