 Gaussian 16, Revision A.03,
 Gaussian 16:  ES64L-G16RevA.03 25-Dec-2016

 --------------------------
 #p opt freq hf/6-311g(d,p)
 --------------------------

 --------
 Cs CHOOH
 --------
 Symbolic Z-matrix:
 Charge =  0 Multiplicity = 1

 SCF Done:  E(RHF) =  -188.808461083     A.U. after   13 cycles
 SCF Done:  E(RHF) =  -188.811111305     A.U. after   11 cycles
 SCF Done:  E(RHF) =  -188.811276832     A.U. after   11 cycles
 SCF Done:  E(RHF) =  -188.811288056     A.U. after    9 cycles
 Optimization completed.
    -- Stationary point found.
 Normal termination of Gaussian 16 at Wed Sep 11 14:03:40 2024.

 --------------------------------------------------------------------
 #P Geom=AllCheck Guess=TCheck SCRF=Check GenChk RHF/6-311G(d,p) Freq
 --------------------------------------------------------------------

 Structure from the checkpoint file:  "c2h2.chk"
 --------
 Cs CHOOH
 --------
 Charge =  0 Multiplicity = 1

                         Standard orientation:
 ---------------------------------------------------------------------
 Center     Atomic      Atomic             Coordinates (Angstroms)
 Number     Number       Type             X           Y           Z
 ---------------------------------------------------------------------
      1          6           0       -0.000000    0.375102   -0.000000
      2          8           0        1.156779    0.203925    0.000000
      3          8           0       -0.879154   -0.619488   -0.000000
      4          1           0       -0.458276    1.366803   -0.000000
      5          1           0       -1.762725   -0.292907   -0.000000
 ---------------------------------------------------------------------

 SCF Done:  E(RHF) =  -188.811288056     A.U. after    1 cycles

 The electronic state is 1-A'.
 Alpha  occ. eigenvalues --  -20.61437 -20.54993 -11.38578  -1.48410  -1.39056
 Alpha  occ. eigenvalues --   -0.87270  -0.80149  -0.67276  -0.64036  -0.59790
 Alpha  occ. eigenvalues --   -0.49227  -0.46362
 Alpha virt. eigenvalues --    0.12963   0.18047   0.18705   0.36986   0.42511
 Alpha virt. eigenvalues --    0.55236   0.55431   0.62625   0.66287   0.76116
 Alpha virt. eigenvalues --    0.88489   1.00065   1.01790   1.03313   1.11229

 Mulliken charges:
               1
     1  C    0.430107
     2  O   -0.391697
     3  O   -0.358195
     4  H    0.058410
     5  H    0.261375
 Sum of Mulliken charges =  -0.00000

 Dipole moment (field-independent basis, Debye):
    X=             -3.9306    Y=              1.7905    Z=             -0.0000  Tot=              4.3192
 Quadrupole moment (field-independent basis, Debye-Ang):
   XX=            -15.7528   YY=            -17.1902   ZZ=            -16.5642
   XY=             -1.4074   XZ=             -0.0000   YZ=             -0.0000

  Exact polarizability:  22.496   0.098  14.317   0.000   0.000   9.345
 Approx polarizability:  20.204  -0.185  12.055   0.000   0.000   8.926

                      1                      2                      3
                     A"                     A'                     A"
 Frequencies --    507.4630               730.7558              1179.7563
 Red. masses --      1.1206                 6.2266                 1.6966
 Frc consts  --      0.1700                 1.9591                 1.3913
 IR Inten    --    111.4024                13.7631                 5.6863
 Raman Activ --      1.0969                 0.9197                 1.6288

                      4                      5                      6
                     A'                     A'                     A'
 Frequencies --   1219.2557              1411.7272              1566.1161
 Red. masses --      2.2462                 1.7824                 1.1643
 Frc consts  --      1.9673                 2.0929                 1.6826
 IR Inten    --     39.4703               416.5817                 5.8839
 Raman Activ --      4.8116                 3.3157                 5.4884

                      7                      8                      9
                     A'                     A'                     A'
 Frequencies --   2059.4300              3166.2950              4169.9268
 Red. masses --      8.5161                 1.0924                 1.0673
 Frc consts  --     21.2806                 6.4524                10.9339
 IR Inten    --    416.4439                90.6254               113.1138
 Raman Activ --      8.8265                82.9017                55.7205

 - Thermochemistry -
 -------------------
 Temperature   298.150 Kelvin.  Pressure   1.00000 Atm.
 Atom     1 has atomic number  6 and mass  12.00000

 Molecular mass:    46.00548 amu.
 Principal axes and moments of inertia in atomic units:
                           1         2         3
     Eigenvalues --    19.75410 149.65846 169.41257
           X            0.93014  -0.36720   0.00000
           Y            0.36720   0.93014   0.00000
           Z           -0.00000   0.00000   1.00000
 This molecule is an asymmetric top.
 Rotational symmetry number  1.
 Rotational temperatures (Kelvin)      4.38460     0.57874     0.51126
 Rotational constants (GHZ):          91.36032    12.05907    10.65294
 Zero-point vibrational energy      95765.4 (Joules/Mol)
                                   22.88848 (Kcal/Mol)
 Warning -- explicit consideration of   1 degrees of freedom as
           vibrations may cause significant error
 Vibrational temperatures:    730.13  1051.39  1697.41  1754.24  2031.16
          (Kelvin)           2253.29  2963.06  4555.59  5999.59

 Zero-point correction=                           0.036475 (Hartree/Particle)
 Thermal correction to Energy=                    0.039672
 Thermal correction to Enthalpy=                  0.040616
 Thermal correction to Gibbs Free Energy=         0.012456
 Sum of electronic and zero-point Energies=           -188.774813
 Sum of electronic and thermal Energies=              -188.771616
 Sum of electronic and thermal Enthalpies=            -188.770672
 Sum of electronic and thermal Free Energies=         -188.798832

                     E (Thermal)             CV                S
                      KCal/Mol        Cal/Mol-Kelvin    Cal/Mol-Kelvin
 Total                   24.895              8.548             59.268
 Electronic               0.000              0.000              0.000
 Translational            0.889              2.981             37.404
 Rotational               0.889              2.981             20.843
 Vibrational             23.117              2.587              1.022
 Vibration     1          0.863              1.233              0.640

 Optimization completed.
    -- Stationary point found.
 Normal termination of Gaussian 16 at Wed Sep 11 14:03:43 2024.
