                         Program Version 6.0.0  -   RELEASE  -
|  1> ! HF 6-311g(d,p) opt freq
|  2>
|  3> * xyz 0 1
|  4> O   0.0000   0.0000   0.0626
|  5> H  -0.7920   0.0000  -0.4973
|  6> H   0.7920   0.0000  -0.4973
|  7> *
|  8>
|  9>                          ****END OF INPUT****
 Total Charge           Charge          ....    0
 Multiplicity           Mult            ....    1
 Number of Electrons    NEL             ....   10
FINAL SINGLE POINT ENERGY       -76.044630764120
FINAL SINGLE POINT ENERGY       -76.046905303734
FINAL SINGLE POINT ENERGY       -76.046995640592
FINAL SINGLE POINT ENERGY       -76.047011344301
FINAL SINGLE POINT ENERGY       -76.047012025562
                    ***********************HURRAY********************

CARTESIAN COORDINATES (ANGSTROEM)
---------------------------------
  O      0.000000    0.000000    0.069215
  H     -0.748825    0.000000   -0.500607
  H      0.748825    0.000000   -0.500607

 Multiplicity           Mult            ....    1
 Number of Electrons    NEL             ....   10
 Basis Dimension        Dim             ....   30

ORBITAL ENERGIES
----------------

  NO   OCC          E(Eh)            E(eV)
   0   2.0000     -20.541342      -558.9583
   1   2.0000      -1.349143       -36.7121
   2   2.0000      -0.717221       -19.5166
   3   2.0000      -0.572860       -15.5883
   4   2.0000      -0.500668       -13.6239
   5   0.0000       0.152598         4.1524
   6   0.0000       0.218574         5.9477
   7   0.0000       0.577230        15.7072
   8   0.0000       0.620699        16.8901
   9   0.0000       0.997456        27.1422

MULLIKEN ATOMIC CHARGES
-----------------------
   0 O :   -0.498277
   1 H :    0.249139
   2 H :    0.249139
Sum of atomic charges:    0.0000000

LOEWDIN ATOMIC CHARGES
----------------------
   0 O :   -0.052592
   1 H :    0.026296
   2 H :    0.026296

  Mayer bond orders larger than 0.100000
B(  0-O ,  1-H ) :   0.9629 B(  0-O ,  2-H ) :   0.9629

FINAL SINGLE POINT ENERGY       -76.047012027849

DIPOLE MOMENT
-------------

Method             : SCF
Type of density    : Electron Density
Multiplicity       :   1
Irrep              :   0
Energy             :   -76.0470120278487514 Eh
Relativity type    :
Basis              : AO
                                X                 Y                 Z
Electronic contribution:      0.000000000      -0.000000000       0.107563959
Nuclear contribution   :     -0.000000000       0.000000000      -0.948594716
                        -----------------------------------------
Total Dipole Moment    :     -0.000000000      -0.000000000      -0.841030757
                        -----------------------------------------
Magnitude (a.u.)       :      0.841030757
Magnitude (Debye)      :      2.137730296

VIBRATIONAL FREQUENCIES
-----------------------

Scaling factor for frequencies =  1.000000000  (already applied!)

     0:       0.00 cm**-1
     1:       0.00 cm**-1
     2:       0.00 cm**-1
     3:       0.00 cm**-1
     4:       0.00 cm**-1
     5:       0.00 cm**-1
     6:    1750.79 cm**-1
     7:    4141.59 cm**-1
     8:    4236.91 cm**-1

IR SPECTRUM
-----------

 Mode   freq       eps      Int      T**2         TX        TY        TZ
       cm**-1   L/(mol*cm) km/mol    a.u.
----------------------------------------------------------------------------
  6:   1750.79   0.015615   78.91  0.002783  (-0.000000  0.000000  0.052757)
  7:   4141.59   0.003520   17.79  0.000265  ( 0.000000 -0.000000  0.016287)
  8:   4236.91   0.011310   57.15  0.000833  (-0.028862  0.000000  0.000000)

--------------------------
THERMOCHEMISTRY AT 298.15K
--------------------------

Temperature         ...   298.15 K
Pressure            ...     1.00 atm
Total Mass          ...    18.02 AMU
Quasi RRHO          ...     True
Cut-Off Frequency   ...     1.00 cm^-1

Throughout the following assumptions are being made:
  (1) The electronic state is orbitally nondegenerate
  (2) There are no thermally accessible electronically excited states
  (3) Hindered rotations indicated by low frequency modes are not
      treated as such but are treated as vibrations and this may
      cause some error
  (4) All equations used are the standard statistical mechanics
      equations for an ideal gas
  (5) All vibrations are strictly harmonic

freq.    1750.79  E(vib)   ...       0.00
freq.    4141.59  E(vib)   ...       0.00
freq.    4236.91  E(vib)   ...       0.00

------------
INNER ENERGY
------------

The inner energy is: U= E(el) + E(ZPE) + E(vib) + E(rot) + E(trans)
    E(el)   - is the total energy from the electronic structure calculation
              = E(kin-el) + E(nuc-el) + E(el-el) + E(nuc-nuc)
    E(ZPE)  - the the zero temperature vibrational energy from the frequency calculation
    E(vib)  - the the finite temperature correction to E(ZPE) due to population
              of excited vibrational states
    E(rot)  - is the rotational thermal energy
    E(trans)- is the translational thermal energy

Summary of contributions to the inner energy U:
Electronic energy                ...    -76.04701203 Eh
Zero point energy                ...      0.02307621 Eh      14.48 kcal/mol
Thermal vibrational correction   ...      0.00000171 Eh       0.00 kcal/mol
Thermal rotational correction    ...      0.00141627 Eh       0.89 kcal/mol
Thermal translational correction ...      0.00141627 Eh       0.89 kcal/mol
-----------------------------------------------------------------------
Total thermal energy                    -76.02110157 Eh

Summary of corrections to the electronic energy:
(perhaps to be used in another calculation)
Total thermal correction                  0.00283425 Eh       1.78 kcal/mol
Non-thermal (ZPE) correction              0.02307621 Eh      14.48 kcal/mol
-----------------------------------------------------------------------
Total correction                          0.02591046 Eh      16.26 kcal/mol

--------
ENTHALPY
--------

The enthalpy is H = U + kB*T
                kB is Boltzmann's constant
Total thermal energy              ...    -76.02110157 Eh
Thermal Enthalpy correction       ...      0.00094421 Eh       0.59 kcal/mol
-----------------------------------------------------------------------
Total Enthalpy                    ...    -76.02015736 Eh

Note: Rotational entropy computed according to Herzberg
Infrared and Raman Spectra, Chapter V,1, Van Nostrand Reinhold, 1945
Point Group:  C2v, Symmetry Number:   2
Rotational constants in cm-1:    28.998094    14.912336     9.847987

Vibrational entropy computed according to the QRRHO of S. Grimme
Chem.Eur.J. 2012 18 9955 using a reference frequency of 100.0 cm-1

-------
ENTROPY
-------

The entropy contributions are T*S = T*(S(el)+S(vib)+S(rot)+S(trans))
     S(el)   - electronic entropy
     S(vib)  - vibrational entropy
     S(rot)  - rotational entropy
     S(trans)- translational entropy
The entropies will be listed as multiplied by the temperature to get
units of energy

Electronic entropy                ...      0.00000000 Eh      0.00 kcal/mol
Vibrational entropy               ...      0.00000191 Eh      0.00 kcal/mol
Rotational entropy                ...      0.00491124 Eh      3.08 kcal/mol
Translational entropy             ...      0.01644380 Eh     10.32 kcal/mol
-----------------------------------------------------------------------
Final entropy term                ...      0.02135696 Eh     13.40 kcal/mol

In case the symmetry of your molecule has not been determined correctly
or in case you have a reason to use a different symmetry number we print
out the resulting rotational entropy values for sn=1,12:

 non-linear molecules -----------------------------------
|  sn= 1 | S(rot)=       0.00556570 Eh      3.49 kcal/mol|
|  sn= 2 | S(rot)=       0.00491124 Eh      3.08 kcal/mol|
|  sn= 3 | S(rot)=       0.00452841 Eh      2.84 kcal/mol|
|  sn= 4 | S(rot)=       0.00425679 Eh      2.67 kcal/mol|
|  sn= 5 | S(rot)=       0.00404610 Eh      2.54 kcal/mol|
|  sn= 6 | S(rot)=       0.00387395 Eh      2.43 kcal/mol|
|  sn= 7 | S(rot)=       0.00372841 Eh      2.34 kcal/mol|
|  sn= 8 | S(rot)=       0.00360233 Eh      2.26 kcal/mol|
|  sn= 9 | S(rot)=       0.00349112 Eh      2.19 kcal/mol|
|  sn=10 | S(rot)=       0.00339164 Eh      2.13 kcal/mol|
|  sn=11 | S(rot)=       0.00330165 Eh      2.07 kcal/mol|
|  sn=12 | S(rot)=       0.00321950 Eh      2.02 kcal/mol|
 linear molecules ---------------------------------------
|  Dinfh | S(rot)=       0.00316621 Eh      1.99 kcal/mol|
|  Cinfv | S(rot)=       0.00382067 Eh      2.40 kcal/mol|
 --------------------------------------------------------

-------------------
GIBBS FREE ENERGY
-------------------

The Gibbs free energy is G = H - T*S

Total enthalpy                    ...    -76.02015736 Eh
Total entropy correction          ...     -0.02135696 Eh    -13.40 kcal/mol
-----------------------------------------------------------------------
Final Gibbs free energy         ...    -76.04151432 Eh

For completeness - the Gibbs free energy minus the electronic energy
G-E(el)                           ...      0.00549771 Eh      3.45 kcal/mol

                             ****ORCA TERMINATED NORMALLY****
TOTAL RUN TIME: 0 days 0 hours 0 minutes 2 seconds 560 msec
