                         Program Version 6.0.0  -   RELEASE  -
|  1> ! HF 6-311g(d,p) opt freq
|  2>
|  3> * int 0 1
|  4>     C  0 0 0 0.0000   0.000    0.00
|  5>     O  1 0 0 1.2029   0.000    0.00
|  6>     H  1 2 0 1.1075 122.016    0.00
|  7>     H  1 2 3 1.1075 122.016  180.00
|  8> *
|  9>
| 10>                          ****END OF INPUT****
 Total Charge           Charge          ....    0
 Multiplicity           Mult            ....    1
 Number of Electrons    NEL             ....   16
FINAL SINGLE POINT ENERGY      -113.897807622517
FINAL SINGLE POINT ENERGY      -113.899137231535
FINAL SINGLE POINT ENERGY      -113.899152144283
FINAL SINGLE POINT ENERGY      -113.899153616764
FINAL SINGLE POINT ENERGY      -113.899154031941
                    ***********************HURRAY********************

CARTESIAN COORDINATES (ANGSTROEM)
---------------------------------
  C      0.003342   -0.000000    0.000000
  O      1.181990    0.000000   -0.000000
  H     -0.578364    0.927529   -0.000000
  H     -0.578364   -0.927529   -0.000000

 Multiplicity           Mult            ....    1
 Number of Electrons    NEL             ....   16
 Basis Dimension        Dim             ....   48

ORBITAL ENERGIES
----------------

  NO   OCC          E(Eh)            E(eV)
   0   2.0000     -20.567644      -559.6741
   1   2.0000     -11.332453      -308.3717
   2   2.0000      -1.421455       -38.6797
   3   2.0000      -0.865338       -23.5470
   4   2.0000      -0.698785       -19.0149
   5   2.0000      -0.656536       -17.8653
   6   2.0000      -0.543643       -14.7933
   7   2.0000      -0.435792       -11.8585
   8   0.0000       0.137355         3.7376
   9   0.0000       0.159358         4.3363
  10   0.0000       0.213258         5.8031
  11   0.0000       0.333130         9.0649
  12   0.0000       0.479783        13.0556

MULLIKEN ATOMIC CHARGES
-----------------------
   0 C :    0.212062
   1 O :   -0.340212
   2 H :    0.064075
   3 H :    0.064075
Sum of atomic charges:   -0.0000000

LOEWDIN ATOMIC CHARGES
----------------------
   0 C :    0.135349
   1 O :   -0.065643
   2 H :   -0.034853
   3 H :   -0.034853

  Mayer bond orders larger than 0.100000
B(  0-C ,  1-O ) :   2.0105 B(  0-C ,  2-H ) :   0.9440 B(  0-C ,  3-H ) :   0.9440

FINAL SINGLE POINT ENERGY      -113.899154041723

DIPOLE MOMENT
-------------

Method             : SCF
Type of density    : Electron Density
Multiplicity       :   1
Irrep              :   0
Energy             :  -113.8991540417232073 Eh
Relativity type    :
Basis              : AO
                                X                 Y                 Z
Electronic contribution:      1.144861741       0.000000000       0.000000000
Nuclear contribution   :     -2.187884728      -0.000000000      -0.000000000
                        -----------------------------------------
Total Dipole Moment    :     -1.043022987      -0.000000000       0.000000000
                        -----------------------------------------
Magnitude (a.u.)       :      1.043022987
Magnitude (Debye)      :      2.651153742

VIBRATIONAL FREQUENCIES
-----------------------

Scaling factor for frequencies =  1.000000000  (already applied!)

     0:       0.00 cm**-1
     1:       0.00 cm**-1
     2:       0.00 cm**-1
     3:       0.00 cm**-1
     4:       0.00 cm**-1
     5:       0.00 cm**-1
     6:    1337.10 cm**-1
     7:    1372.19 cm**-1
     8:    1656.58 cm**-1
     9:    2005.96 cm**-1
    10:    3091.57 cm**-1
    11:    3159.91 cm**-1

IR SPECTRUM
-----------

 Mode   freq       eps      Int      T**2         TX        TY        TZ
       cm**-1   L/(mol*cm) km/mol    a.u.
----------------------------------------------------------------------------
  6:   1337.10   0.000168    0.85  0.000039  ( 0.000000  0.000000 -0.006265)
  7:   1372.19   0.004994   25.24  0.001136  ( 0.000000 -0.033700  0.000000)
  8:   1656.58   0.002676   13.53  0.000504  ( 0.022453  0.000000 -0.000000)
  9:   2005.96   0.031327  158.31  0.004874  (-0.069811  0.000000 -0.000000)
 10:   3091.57   0.010997   55.57  0.001110  (-0.033317  0.000000  0.000000)
 11:   3159.91   0.025921  130.99  0.002560  (-0.000000 -0.050595 -0.000000)

--------------------------
THERMOCHEMISTRY AT 298.15K
--------------------------

Temperature         ...   298.15 K
Pressure            ...     1.00 atm
Total Mass          ...    30.03 AMU
Quasi RRHO          ...     True
Cut-Off Frequency   ...     1.00 cm^-1

Throughout the following assumptions are being made:
  (1) The electronic state is orbitally nondegenerate
  (2) There are no thermally accessible electronically excited states
  (3) Hindered rotations indicated by low frequency modes are not
      treated as such but are treated as vibrations and this may
      cause some error
  (4) All equations used are the standard statistical mechanics
      equations for an ideal gas
  (5) All vibrations are strictly harmonic

freq.    1337.10  E(vib)   ...       0.01
freq.    1372.19  E(vib)   ...       0.01
freq.    1656.58  E(vib)   ...       0.00
freq.    2005.96  E(vib)   ...       0.00
freq.    3091.57  E(vib)   ...       0.00
freq.    3159.91  E(vib)   ...       0.00

------------
INNER ENERGY
------------

The inner energy is: U= E(el) + E(ZPE) + E(vib) + E(rot) + E(trans)
    E(el)   - is the total energy from the electronic structure calculation
              = E(kin-el) + E(nuc-el) + E(el-el) + E(nuc-nuc)
    E(ZPE)  - the the zero temperature vibrational energy from the frequency calculation
    E(vib)  - the the finite temperature correction to E(ZPE) due to population
              of excited vibrational states
    E(rot)  - is the rotational thermal energy
    E(trans)- is the translational thermal energy

Summary of contributions to the inner energy U:
Electronic energy                ...   -113.89915404 Eh
Zero point energy                ...      0.02875805 Eh      18.05 kcal/mol
Thermal vibrational correction   ...      0.00002108 Eh       0.01 kcal/mol
Thermal rotational correction    ...      0.00141627 Eh       0.89 kcal/mol
Thermal translational correction ...      0.00141627 Eh       0.89 kcal/mol
-----------------------------------------------------------------------
Total thermal energy                   -113.86754237 Eh

Summary of corrections to the electronic energy:
(perhaps to be used in another calculation)
Total thermal correction                  0.00285363 Eh       1.79 kcal/mol
Non-thermal (ZPE) correction              0.02875805 Eh      18.05 kcal/mol
-----------------------------------------------------------------------
Total correction                          0.03161167 Eh      19.84 kcal/mol

--------
ENTHALPY
--------

The enthalpy is H = U + kB*T
                kB is Boltzmann's constant
Total thermal energy              ...   -113.86754237 Eh
Thermal Enthalpy correction       ...      0.00094421 Eh       0.59 kcal/mol
-----------------------------------------------------------------------
Total Enthalpy                    ...   -113.86659816 Eh

Note: Rotational entropy computed according to Herzberg
Infrared and Raman Spectra, Chapter V,1, Van Nostrand Reinhold, 1945
Point Group:  C2v, Symmetry Number:   2
Rotational constants in cm-1:     9.719657     1.349419     1.184913

Vibrational entropy computed according to the QRRHO of S. Grimme
Chem.Eur.J. 2012 18 9955 using a reference frequency of 100.0 cm-1

-------
ENTROPY
-------

The entropy contributions are T*S = T*(S(el)+S(vib)+S(rot)+S(trans))
     S(el)   - electronic entropy
     S(vib)  - vibrational entropy
     S(rot)  - rotational entropy
     S(trans)- translational entropy
The entropies will be listed as multiplied by the temperature to get
units of energy

Electronic entropy                ...      0.00000000 Eh      0.00 kcal/mol
Vibrational entropy               ...      0.00002422 Eh      0.02 kcal/mol
Rotational entropy                ...      0.00756118 Eh      4.74 kcal/mol
Translational entropy             ...      0.01716732 Eh     10.77 kcal/mol
-----------------------------------------------------------------------
Final entropy term                ...      0.02475271 Eh     15.53 kcal/mol

In case the symmetry of your molecule has not been determined correctly
or in case you have a reason to use a different symmetry number we print
out the resulting rotational entropy values for sn=1,12:

 non-linear molecules -----------------------------------
|  sn= 1 | S(rot)=       0.00821563 Eh      5.16 kcal/mol|
|  sn= 2 | S(rot)=       0.00756118 Eh      4.74 kcal/mol|
|  sn= 3 | S(rot)=       0.00717834 Eh      4.50 kcal/mol|
|  sn= 4 | S(rot)=       0.00690672 Eh      4.33 kcal/mol|
|  sn= 5 | S(rot)=       0.00669603 Eh      4.20 kcal/mol|
|  sn= 6 | S(rot)=       0.00652389 Eh      4.09 kcal/mol|
|  sn= 7 | S(rot)=       0.00637834 Eh      4.00 kcal/mol|
|  sn= 8 | S(rot)=       0.00625226 Eh      3.92 kcal/mol|
|  sn= 9 | S(rot)=       0.00614106 Eh      3.85 kcal/mol|
|  sn=10 | S(rot)=       0.00604158 Eh      3.79 kcal/mol|
|  sn=11 | S(rot)=       0.00595159 Eh      3.73 kcal/mol|
|  sn=12 | S(rot)=       0.00586943 Eh      3.68 kcal/mol|
 linear molecules ---------------------------------------
|  Dinfh | S(rot)=       0.00516561 Eh      3.24 kcal/mol|
|  Cinfv | S(rot)=       0.00582006 Eh      3.65 kcal/mol|
 --------------------------------------------------------

-------------------
GIBBS FREE ENERGY
-------------------

The Gibbs free energy is G = H - T*S

Total enthalpy                    ...   -113.86659816 Eh
Total entropy correction          ...     -0.02475271 Eh    -15.53 kcal/mol
-----------------------------------------------------------------------
Final Gibbs free energy         ...   -113.89135087 Eh

For completeness - the Gibbs free energy minus the electronic energy
G-E(el)                           ...      0.00780317 Eh      4.90 kcal/mol

                             ****ORCA TERMINATED NORMALLY****
TOTAL RUN TIME: 0 days 0 hours 0 minutes 7 seconds 373 msec
