 Gaussian 16, Revision A.03,
 Gaussian 16:  ES64L-G16RevA.03 25-Dec-2016

 ----------------------------------------------
 #p opt freq hf/6-311++g(d,p) geom=connectivity
 ----------------------------------------------

 -------------------
 Title Card Required
 -------------------
 Symbolic Z-matrix:
 Charge =  0 Multiplicity = 1

 SCF Done:  E(RHF) =  -272.116472562     A.U. after   12 cycles
 SCF Done:  E(RHF) =  -272.123452720     A.U. after   10 cycles
 SCF Done:  E(RHF) =  -272.123500442     A.U. after    9 cycles
 SCF Done:  E(RHF) =  -272.123505628     A.U. after    8 cycles
 Optimization completed.
    -- Stationary point found.
 Normal termination of Gaussian 16 at Fri Nov 22 12:15:48 2024.

 ----------------------------------------------------------------------
 #P Geom=AllCheck Guess=TCheck SCRF=Check GenChk RHF/6-311++G(d,p) Freq
 ----------------------------------------------------------------------

 Structure from the checkpoint file:  "bicycloheptane.chk"
 -------------------
 Title Card Required
 -------------------
 Charge =  0 Multiplicity = 1

                         Standard orientation:
 ---------------------------------------------------------------------
 Center     Atomic      Atomic             Coordinates (Angstroms)
 Number     Number       Type             X           Y           Z
 ---------------------------------------------------------------------
      1          6           0        1.251298    0.778668   -0.490638
      2          6           0       -0.000017    1.127453    0.336666
      3          6           0        0.000017   -1.127453    0.336665
      4          6           0        1.251332   -0.778632   -0.490618
      5          1           0        1.209794    1.198449   -1.490884
      6          1           0        2.147109    1.167663   -0.015685
      7          1           0        1.209886   -1.198445   -1.490853
      8          1           0        2.147143   -1.167572   -0.015619
      9          6           0        0.000004    0.000000    1.381379
     10          1           0       -0.883107   -0.000011    2.014521
     11          1           0        0.883120    0.000012    2.014516
     12          6           0       -1.251334    0.778633   -0.490615
     13          1           0       -2.147146    1.167572   -0.015615
     14          1           0       -1.209889    1.198443   -1.490851
     15          6           0       -1.251300   -0.778669   -0.490633
     16          1           0       -2.147111   -1.167662   -0.015678
     17          1           0       -1.209802   -1.198450   -1.490880
     18          1           0       -0.000028    2.140818    0.721897
     19          1           0        0.000029   -2.140818    0.721895
 ---------------------------------------------------------------------

 SCF Done:  E(RHF) =  -272.123505628     A.U. after    1 cycles

 The electronic state is 1-A.
 Alpha  occ. eigenvalues --  -11.21589 -11.21588 -11.20984 -11.20980 -11.20929
 Alpha  occ. eigenvalues --  -11.20926 -11.20803  -1.16245  -0.99799  -0.97807
 Alpha  occ. eigenvalues --   -0.94064  -0.82269  -0.75571  -0.72787  -0.67913
 Alpha  occ. eigenvalues --   -0.63704  -0.62778  -0.54732  -0.54282  -0.50367
 Alpha  occ. eigenvalues --   -0.49394  -0.48329  -0.46568  -0.46265  -0.44246
 Alpha  occ. eigenvalues --   -0.42895  -0.41672
 Alpha virt. eigenvalues --    0.03946   0.05041   0.05725   0.05739   0.07412
 Alpha virt. eigenvalues --    0.07645   0.07663   0.07853   0.07969   0.10215
 Alpha virt. eigenvalues --    0.10394   0.10772   0.13846   0.14781   0.16112

 Mulliken charges:
               1
     1  C   -0.569566
     2  C    0.611933
     3  C    0.611933
     4  C   -0.569582
     5  H    0.133763
     6  H    0.138990
     7  H    0.133766
     8  H    0.138989
     9  C   -0.771347
    10  H    0.144313
    11  H    0.144314
    12  C   -0.569582
    13  H    0.138989
    14  H    0.133767
    15  C   -0.569568
    16  H    0.138990
    17  H    0.133763
    18  H    0.223068
    19  H    0.223068
 Sum of Mulliken charges =  -0.00000

 Dipole moment (field-independent basis, Debye):
    X=             -0.0000    Y=              0.0000    Z=              0.0773  Tot=              0.0773
 Quadrupole moment (field-independent basis, Debye-Ang):
   XX=            -45.5939   YY=            -45.8388   ZZ=            -45.3516
   XY=              0.0000   XZ=              0.0000   YZ=              0.0000

  Exact polarizability:  73.134  -0.000  70.930  -0.000   0.000  68.917
 Approx polarizability:  64.924  -0.000  64.618   0.000   0.000  65.266

                      1                      2                      3
                      A                      A                      A
 Frequencies --    168.5694               358.3546               428.1702
 Red. masses --      1.7711                 1.5871                 2.2555
 Frc consts  --      0.0297                 0.1201                 0.2436
 IR Inten    --      0.0000                 0.0408                 0.0042
 Raman Activ --      0.1410                 0.1682                 0.8873

                      4                      5                      6
                      A                      A                      A
 Frequencies --    480.8811               585.1516               812.8608
 Red. masses --      1.7485                 3.7655                 3.4858
 Frc consts  --      0.2382                 0.7596                 1.3570
 IR Inten    --      0.0122                 0.0000                 0.8073
 Raman Activ --      0.2816                 0.8610                 7.9564

                      7                      8                      9
                      A                      A                      A
 Frequencies --    822.8070               857.9238               873.5679
 Red. masses --      4.0053                 1.1560                 2.4154
 Frc consts  --      1.5976                 0.5013                 1.0860
 IR Inten    --      0.0804                 0.2489                 1.9551
 Raman Activ --      1.0326                 0.0103                 0.3244

                     10                     11                     12
                      A                      A                      A
 Frequencies --    877.6629               938.9901               953.5842
 Red. masses --      1.9513                 1.9152                 2.8507
 Frc consts  --      0.8856                 0.9949                 1.5273
 IR Inten    --      0.1781                 0.9052                 0.8090
 Raman Activ --      4.3151                21.3007                 2.3355

                     13                     14                     15
                      A                      A                      A
 Frequencies --    989.6659              1025.9573              1029.5352
 Red. masses --      2.8946                 1.8709                 1.6621
 Frc consts  --      1.6704                 1.1603                 1.0380
 IR Inten    --      1.2264                 0.0000                 0.5089
 Raman Activ --     13.4430                 0.1930                 5.4771

                     16                     17                     18
                      A                      A                      A
 Frequencies --   1037.5483              1037.6329              1072.4151
 Red. masses --      1.3487                 2.1738                 1.9771
 Frc consts  --      0.8554                 1.3790                 1.3397
 IR Inten    --      0.0000                 0.5306                 0.0351
 Raman Activ --      0.2326                 3.8328                16.5372

                     19                     20                     21
                      A                      A                      A
 Frequencies --   1118.2226              1188.0971              1212.4481
 Red. masses --      1.3608                 1.5738                 1.0562
 Frc consts  --      1.0025                 1.3089                 0.9148
 IR Inten    --      0.2317                 0.2202                 0.1437
 Raman Activ --      4.8515                 3.2533                 0.0183

                     22                     23                     24
                      A                      A                      A
 Frequencies --   1232.4483              1263.8026              1306.6981
 Red. masses --      1.0832                 1.1277                 1.7897
 Frc consts  --      0.9693                 1.0613                 1.8004
 IR Inten    --      0.0000                 1.0592                 0.1479
 Raman Activ --      9.9596                 9.1273                 1.0939

                     25                     26                     27
                      A                      A                      A
 Frequencies --   1344.1830              1367.3486              1388.3290
 Red. masses --      1.1630                 1.8647                 1.4034
 Frc consts  --      1.2380                 2.0540                 1.5937
 IR Inten    --      0.0000                 2.2000                 0.8305
 Raman Activ --      5.4066                 0.4105                 5.9374

                     28                     29                     30
                      A                      A                      A
 Frequencies --   1402.8137              1409.9167              1421.5764
 Red. masses --      1.3331                 1.7136                 1.3266
 Frc consts  --      1.5457                 2.0070                 1.5796
 IR Inten    --      0.2674                 0.7455                 0.0000
 Raman Activ --      0.8971                 0.7445                 0.0181

                     31                     32                     33
                      A                      A                      A
 Frequencies --   1455.7853              1467.0619              1469.4659
 Red. masses --      1.8383                 1.4357                 1.5313
 Frc consts  --      2.2954                 1.8205                 1.9481
 IR Inten    --      0.0000                 0.0525                 1.6600
 Raman Activ --      0.0000                 3.1462                 0.0236

                     34                     35                     36
                      A                      A                      A
 Frequencies --   1471.0707              1604.8788              1618.2202
 Red. masses --      1.5834                 1.0847                 1.0888
 Frc consts  --      2.0189                 1.6461                 1.6798
 IR Inten    --      1.6525                 0.0000                 1.3277
 Raman Activ --      3.5851                12.8556                 3.7596

                     37                     38                     39
                      A                      A                      A
 Frequencies --   1620.0943              1628.6617              1652.2153
 Red. masses --      1.1144                 1.1119                 1.1070
 Frc consts  --      1.7234                 1.7378                 1.7804
 IR Inten    --      4.9448                 4.4523                 0.1869
 Raman Activ --      5.5919                 2.4284                 0.5956

                     40                     41                     42
                      A                      A                      A
 Frequencies --   3165.3906              3165.9583              3168.5777
 Red. masses --      1.0602                 1.0632                 1.0597
 Frc consts  --      6.2590                 6.2786                 6.2687
 IR Inten    --      0.0000                56.7710                54.1875
 Raman Activ --     73.2161                16.5244                56.3958

                     43                     44                     45
                      A                      A                      A
 Frequencies --   3180.8734              3181.6393              3192.1818
 Red. masses --      1.0619                 1.0654                 1.1083
 Frc consts  --      6.3304                 6.3542                 6.6538
 IR Inten    --    117.3805                18.7298                 0.0000
 Raman Activ --      3.0100               292.6898                22.7359

                     46                     47                     48
                      A                      A                      A
 Frequencies --   3198.4497              3208.3511              3213.8558
 Red. masses --      1.1040                 1.1078                 1.0880
 Frc consts  --      6.6541                 6.7187                 6.6209
 IR Inten    --     18.8661                 9.1387               143.0591
 Raman Activ --     77.3515                22.4768                51.1830

                     49                     50                     51
                      A                      A                      A
 Frequencies --   3218.4228              3222.1547              3226.3892
 Red. masses --      1.1076                 1.0919                 1.1014
 Frc consts  --      6.7594                 6.6794                 6.7548
 IR Inten    --     94.1327                13.8759               138.4680
 Raman Activ --     99.2062               379.8519               178.5713

 - Thermochemistry -
 -------------------
 Temperature   298.150 Kelvin.  Pressure   1.00000 Atm.
 Atom     1 has atomic number  6 and mass  12.00000

 Molecular mass:    96.09390 amu.
 Principal axes and moments of inertia in atomic units:
                           1         2         3
     Eigenvalues --   483.86320 559.14744 647.61039
           X            1.00000   0.00000   0.00000
           Y           -0.00000   1.00000   0.00000
           Z           -0.00000  -0.00000   1.00000
 This molecule is an asymmetric top.
 Rotational symmetry number  1.
 Warning -- assumption of classical behavior for rotation
           may cause significant error
 Rotational temperatures (Kelvin)      0.17900     0.15490     0.13374
 Rotational constants (GHZ):           3.72986     3.22767     2.78677
 Zero-point vibrational energy     492483.8 (Joules/Mol)
                                  117.70645 (Kcal/Mol)
 Warning -- explicit consideration of   5 degrees of freedom as
           vibrations may cause significant error
 Vibrational temperatures:    242.53   515.59   616.04   691.88   841.90
          (Kelvin)           1169.53  1183.84  1234.36  1256.87  1262.76
                             1351.00  1371.99  1423.91  1476.12  1481.27
                             1492.80  1492.92  1542.97  1608.87  1709.41
                             1744.44  1773.22  1818.33  1880.05  1933.98
                             1967.31  1997.50  2018.34  2028.56  2045.33
                             2094.55  2110.77  2114.23  2116.54  2309.06
                             2328.26  2330.95  2343.28  2377.17  4554.29
                             4555.11  4558.88  4576.57  4577.67  4592.84
                             4601.86  4616.10  4624.02  4630.59  4635.96
                             4642.05

 Zero-point correction=                           0.187577 (Hartree/Particle)
 Thermal correction to Energy=                    0.192858
 Thermal correction to Enthalpy=                  0.193802
 Thermal correction to Gibbs Free Energy=         0.158682
 Sum of electronic and zero-point Energies=           -271.935928
 Sum of electronic and thermal Energies=              -271.930648
 Sum of electronic and thermal Enthalpies=            -271.929703
 Sum of electronic and thermal Free Energies=         -271.964823

                     E (Thermal)             CV                S
                      KCal/Mol        Cal/Mol-Kelvin    Cal/Mol-Kelvin
 Total                  121.020             21.393             73.916
 Electronic               0.000              0.000              0.000
 Translational            0.889              2.981             39.599
 Rotational               0.889              2.981             26.663
 Vibrational            119.243             15.432              7.653
 Vibration     1          0.625              1.881              2.451
 Vibration     2          0.733              1.558              1.129
 Vibration     3          0.790              1.409              0.865
 Vibration     4          0.837              1.292              0.708
 Vibration     5          0.942              1.063              0.476

 Optimization completed.
    -- Stationary point found.
 Normal termination of Gaussian 16 at Fri Nov 22 12:25:08 2024.
