 Gaussian 16, Revision A.03,
 Gaussian 16:  ES64L-G16RevA.03 25-Dec-2016

 --------------------------------------------
 #p opt freq hf/6-311g(d,p) geom=connectivity
 --------------------------------------------

 -------------------
 Title Card Required
 -------------------
 Symbolic Z-matrix:
 Charge =  0 Multiplicity = 1

 SCF Done:  E(RHF) =  -527.125897474     A.U. after   21 cycles
 SCF Done:  E(RHF) =  -527.225069796     A.U. after   18 cycles
 SCF Done:  E(RHF) =  -527.344823123     A.U. after   15 cycles
 SCF Done:  E(RHF) =  -527.412438594     A.U. after   14 cycles
 SCF Done:  E(RHF) =  -527.429505603     A.U. after   15 cycles
 SCF Done:  E(RHF) =  -527.433478615     A.U. after   14 cycles
 SCF Done:  E(RHF) =  -527.440565173     A.U. after   13 cycles
 SCF Done:  E(RHF) =  -527.453661845     A.U. after   12 cycles
 SCF Done:  E(RHF) =  -527.463554071     A.U. after   14 cycles
 SCF Done:  E(RHF) =  -527.465937921     A.U. after   12 cycles
 SCF Done:  E(RHF) =  -527.488438075     A.U. after    9 cycles
 SCF Done:  E(RHF) =  -527.488465311     A.U. after   10 cycles
 SCF Done:  E(RHF) =  -527.488478868     A.U. after    9 cycles
 SCF Done:  E(RHF) =  -527.488499161     A.U. after    9 cycles
 SCF Done:  E(RHF) =  -527.488505896     A.U. after   10 cycles
 SCF Done:  E(RHF) =  -527.488507849     A.U. after    9 cycles
 SCF Done:  E(RHF) =  -527.488511247     A.U. after    9 cycles
 SCF Done:  E(RHF) =  -527.488512431     A.U. after    9 cycles
 SCF Done:  E(RHF) =  -527.488512634     A.U. after    7 cycles
 Optimization completed.
    -- Stationary point found.
 Normal termination of Gaussian 16 at Wed Sep 25 09:53:26 2024.

 --------------------------------------------------------------------
 #P Geom=AllCheck Guess=TCheck SCRF=Check GenChk RHF/6-311G(d,p) Freq
 --------------------------------------------------------------------

 Structure from the checkpoint file:  "carbonic_acid_input.chk"
 -------------------
 Title Card Required
 -------------------
 Charge =  0 Multiplicity = 1

                         Standard orientation:
 ---------------------------------------------------------------------
 Center     Atomic      Atomic             Coordinates (Angstroms)
 Number     Number       Type             X           Y           Z
 ---------------------------------------------------------------------
      1          6           0       -1.928210   -0.016793    0.000461
      2          8           0       -1.248666   -1.003321    0.006825
      3          8           0       -1.497572    1.199569    0.003965
      4          1           0       -0.538174    1.207298    0.011659
      5          8           0       -3.236255   -0.055503   -0.011219
      6          1           0       -3.505671   -0.960536   -0.013419
      7          6           0        1.928136    0.016810    0.000651
      8          8           0        1.248338    1.003171    0.007311
      9          8           0        1.497991   -1.199752    0.004096
     10          1           0        0.538618   -1.208399    0.013342
     11          8           0        3.236206    0.055901   -0.011528
     12          1           0        3.505335    0.961015   -0.013859
 ---------------------------------------------------------------------

 SCF Done:  E(RHF) =  -527.488512634     A.U. after    1 cycles

 The electronic state is 1-A.
 Alpha  occ. eigenvalues --  -20.62542 -20.62540 -20.61087 -20.61081 -20.55828
 Alpha  occ. eigenvalues --  -20.55822 -11.45130 -11.45124  -1.54842  -1.54403
 Alpha  occ. eigenvalues --   -1.43059  -1.42871  -1.39377  -1.38857  -0.92861
 Alpha  occ. eigenvalues --   -0.91643  -0.78487  -0.76941  -0.75134  -0.73814
 Alpha  occ. eigenvalues --   -0.70617  -0.70187  -0.68167  -0.66586  -0.62189
 Alpha  occ. eigenvalues --   -0.59666  -0.55335  -0.55181  -0.50544  -0.49999
 Alpha  occ. eigenvalues --   -0.49583  -0.49410
 Alpha virt. eigenvalues --    0.14874   0.15309   0.21894   0.22365   0.23661
 Alpha virt. eigenvalues --    0.27067   0.37260   0.42888   0.47283   0.51870
 Alpha virt. eigenvalues --    0.52165   0.52621   0.53110   0.54683   0.55764

 Mulliken charges:
               1
     1  C    0.704504
     2  O   -0.571248
     3  O   -0.382166
     4  H    0.334318
     5  O   -0.367604
     6  H    0.282147
     7  C    0.704608
     8  O   -0.571211
     9  O   -0.382221
    10  H    0.334310
    11  O   -0.367594
    12  H    0.282156
 Sum of Mulliken charges =  -0.00000

 Dipole moment (field-independent basis, Debye):
    X=              0.0007    Y=             -0.0011    Z=             -0.0050  Tot=              0.0052
 Quadrupole moment (field-independent basis, Debye-Ang):
   XX=            -37.0028   YY=            -47.7146   ZZ=            -43.1862
   XY=             12.6748   XZ=             -0.0001   YZ=             -0.0064

  Exact polarizability:  47.315   0.003  38.529  -0.004  -0.000  21.183
 Approx polarizability:  36.601  -1.629  37.143  -0.003   0.000  21.177

                      1                      2                      3
                      A                      A                      A
 Frequencies --     56.1271                76.4163               115.7387
 Red. masses --      9.8588                 7.8961                10.3210
 Frc consts  --      0.0183                 0.0272                 0.0815
 IR Inten    --      0.6507                 1.2473                 0.0005
 Raman Activ --      0.0006                 0.0002                 0.6696

                      4                      5                      6
                      A                      A                      A
 Frequencies --    160.0799               165.6495               168.9292
 Red. masses --      9.8479                 9.0207                 7.1132
 Frc consts  --      0.1487                 0.1458                 0.1196
 IR Inten    --      0.0023                 0.0006                11.8855
 Raman Activ --      0.0390                 0.1923                 0.0004

                      7                      8                      9
                      A                      A                      A
 Frequencies --    612.9008               613.5672               625.2056
 Red. masses --      1.1144                 1.1128                 5.0340
 Frc consts  --      0.2467                 0.2468                 1.1593
 IR Inten    --      1.0529               212.2925                 0.0080
 Raman Activ --      3.9167                 0.0201                 0.5503

                     10                     11                     12
                      A                      A                      A
 Frequencies --    642.8276               694.2967               697.2615
 Red. masses --      4.9428                 5.3899                 5.8684
 Frc consts  --      1.2034                 1.5308                 1.6810
 IR Inten    --     76.6232                 0.0184               103.0002
 Raman Activ --      0.0001                 5.1487                 0.0006

                     13                     14                     15
                      A                      A                      A
 Frequencies --    862.8346               878.3632               918.0405
 Red. masses --      1.1788                 1.8948                 5.3087
 Frc consts  --      0.5171                 0.8613                 2.6361
 IR Inten    --      0.1168                10.8873                 0.0747
 Raman Activ --      0.7949                 0.0019                 0.3156

                     16                     17                     18
                      A                      A                      A
 Frequencies --    954.3953              1117.7549              1123.2298
 Red. masses --      1.9839                 5.8319                 5.7716
 Frc consts  --      1.0647                 4.2929                 4.2902
 IR Inten    --    466.1643                18.9466                 0.0016
 Raman Activ --      0.0009                 0.0016                13.6211

                     19                     20                     21
                      A                      A                      A
 Frequencies --   1356.4404              1358.5463              1474.4713
 Red. masses --      1.6115                 1.5724                 1.4337
 Frc consts  --      1.7470                 1.7098                 1.8364
 IR Inten    --      0.3697               744.8665               181.5992
 Raman Activ --      2.1820                 0.0011                 0.0025

                     22                     23                     24
                      A                      A                      A
 Frequencies --   1486.5433              1650.6291              1673.6099
 Red. masses --      1.5682                 3.3286                 2.8776
 Frc consts  --      2.0418                 5.3434                 4.7489
 IR Inten    --      0.0569               619.9953                 0.0376
 Raman Activ --      9.4612                 0.0001                 3.9241

                     25                     26                     27
                      A                      A                      A
 Frequencies --   1926.6100              1975.1594              3805.0920
 Red. masses --      6.4313                 8.0766                 1.0713
 Frc consts  --     14.0649                18.5645                 9.1385
 IR Inten    --      0.0360              1561.4212                 0.0617
 Raman Activ --      2.3880                 0.0000               144.1677

                     28                     29                     30
                      A                      A                      A
 Frequencies --   3854.2873              4149.0530              4149.4003
 Red. masses --      1.0677                 1.0661                 1.0660
 Frc consts  --      9.3448                10.8126                10.8139
 IR Inten    --   1781.0310               284.9720                 1.7748
 Raman Activ --      0.0045                 0.5090                81.3785

 - Thermochemistry -
 -------------------
 Temperature   298.150 Kelvin.  Pressure   1.00000 Atm.
 Atom     1 has atomic number  6 and mass  12.00000

 Molecular mass:   124.00079 amu.
 Principal axes and moments of inertia in atomic units:
                           1         2         3
     Eigenvalues --   296.726422040.195002336.87173
           X            0.99994   0.01104  -0.00000
           Y           -0.01104   0.99994  -0.00003
           Z            0.00000   0.00003   1.00000
 This molecule is an asymmetric top.
 Rotational symmetry number  1.
 Rotational temperatures (Kelvin)      0.29190     0.04245     0.03706
 Rotational constants (GHZ):           6.08217     0.88459     0.77229
 Zero-point vibrational energy     235326.2 (Joules/Mol)
                                   56.24430 (Kcal/Mol)
 Warning -- explicit consideration of   8 degrees of freedom as
           vibrations may cause significant error
 Vibrational temperatures:     80.75   109.95   166.52   230.32   238.33
          (Kelvin)            243.05   881.83   882.79   899.53   924.89
                              998.94  1003.20  1241.43  1263.77  1320.86
                             1373.16  1608.20  1616.08  1951.62  1954.65
                             2121.44  2138.80  2374.89  2407.95  2771.96
                             2841.81  5474.68  5545.46  5969.56  5970.06

 Zero-point correction=                           0.089631 (Hartree/Particle)
 Thermal correction to Energy=                    0.097740
 Thermal correction to Enthalpy=                  0.098684
 Thermal correction to Gibbs Free Energy=         0.055285
 Sum of electronic and zero-point Energies=           -527.398882
 Sum of electronic and thermal Energies=              -527.390773
 Sum of electronic and thermal Enthalpies=            -527.389829
 Sum of electronic and thermal Free Energies=         -527.433227

                     E (Thermal)             CV                S
                      KCal/Mol        Cal/Mol-Kelvin    Cal/Mol-Kelvin
 Total                   61.333             26.131             91.340
 Electronic               0.000              0.000              0.000
 Translational            0.889              2.981             40.359
 Rotational               0.889              2.981             28.738
 Vibrational             59.555             20.169             22.242
 Vibration     1          0.596              1.975              4.589
 Vibration     2          0.599              1.965              3.981
 Vibration     3          0.608              1.936              3.170
 Vibration     4          0.622              1.891              2.549
 Vibration     5          0.624              1.885              2.484
 Vibration     6          0.625              1.881              2.447
 Vibration     7          0.972              1.005              0.428
 Vibration     8          0.973              1.003              0.427

                           ! Non-Optimized Parameters !
 Normal termination of Gaussian 16 at Wed Sep 25 09:54:22 2024.
