 Gaussian 16, Revision A.03,
 Gaussian 16:  ES64L-G16RevA.03 25-Dec-2016

 ---------------------------------------
 #p opt freq hf/6-311g geom=connectivity
 ---------------------------------------

 -------------------
 Title Card Required
 -------------------
 Symbolic Z-matrix:
 Charge =  0 Multiplicity = 1

 SCF Done:  E(RHF) =  -151.980647085     A.U. after   11 cycles
 SCF Done:  E(RHF) =  -152.016825975     A.U. after   11 cycles
 SCF Done:  E(RHF) =  -152.026319864     A.U. after   11 cycles
 SCF Done:  E(RHF) =  -152.027371387     A.U. after   11 cycles
 SCF Done:  E(RHF) =  -152.030236239     A.U. after   11 cycles
 SCF Done:  E(RHF) =  -152.032338560     A.U. after   11 cycles
 SCF Done:  E(RHF) =  -152.033937698     A.U. after   12 cycles
 SCF Done:  E(RHF) =  -152.034496713     A.U. after   10 cycles
 SCF Done:  E(RHF) =  -152.034551642     A.U. after    9 cycles
 SCF Done:  E(RHF) =  -152.034618657     A.U. after    9 cycles
 SCF Done:  E(RHF) =  -152.034857011     A.U. after   10 cycles
 SCF Done:  E(RHF) =  -152.034881375     A.U. after   10 cycles
 SCF Done:  E(RHF) =  -152.034884139     A.U. after    9 cycles
 SCF Done:  E(RHF) =  -152.034886296     A.U. after    9 cycles
 SCF Done:  E(RHF) =  -152.034904913     A.U. after    9 cycles
 SCF Done:  E(RHF) =  -152.034920069     A.U. after   10 cycles
 SCF Done:  E(RHF) =  -152.034928472     A.U. after    9 cycles
 SCF Done:  E(RHF) =  -152.034930814     A.U. after    9 cycles
 SCF Done:  E(RHF) =  -152.034930956     A.U. after    7 cycles
 Optimization completed.
    -- Stationary point found.
 Normal termination of Gaussian 16 at Mon Sep 16 13:58:55 2024.

 ---------------------------------------------------------------
 #P Geom=AllCheck Guess=TCheck SCRF=Check GenChk RHF/6-311G Freq
 ---------------------------------------------------------------

 Structure from the checkpoint file:  "h2o_dimer.chk"
 -------------------
 Title Card Required
 -------------------
 Charge =  0 Multiplicity = 1

                         Standard orientation:
 ---------------------------------------------------------------------
 Center     Atomic      Atomic             Coordinates (Angstroms)
 Number     Number       Type             X           Y           Z
 ---------------------------------------------------------------------
      1          8           0        1.480015    0.000494   -0.108384
      2          1           0        0.529494   -0.001828   -0.052204
      3          1           0        1.885010   -0.003063    0.744555
      4          8           0       -1.328831   -0.000305    0.057958
      5          1           0       -1.814382   -0.784836   -0.146531
      6          1           0       -1.809590    0.788214   -0.142408
 ---------------------------------------------------------------------

 SCF Done:  E(RHF) =  -152.034930956     A.U. after    1 cycles

 The electronic state is 1-A.
 Alpha  occ. eigenvalues --  -20.58165 -20.49720  -1.39218  -1.31075  -0.76762
 Alpha  occ. eigenvalues --   -0.69669  -0.59278  -0.53866  -0.50439  -0.45812
 Alpha virt. eigenvalues --    0.12456   0.19723   0.19778   0.34187   0.54989
 Alpha virt. eigenvalues --    0.55770   0.61656   0.62980   0.96489   1.03823
 Alpha virt. eigenvalues --    1.05109   1.12813   1.17480   1.22524   1.40604

 Mulliken charges:
               1
     1  O   -0.882436
     2  H    0.474314
     3  H    0.386680
     4  O   -0.842987
     5  H    0.432205
     6  H    0.432223
 Sum of Mulliken charges =   0.00000

 Dipole moment (field-independent basis, Debye):
    X=             -4.1503    Y=             -0.0043    Z=              1.1333  Tot=              4.3023
 Quadrupole moment (field-independent basis, Debye-Ang):
   XX=             -8.6623   YY=            -11.0635   ZZ=            -13.0661
   XY=             -0.0261   XZ=              5.8348   YZ=              0.0025

  Exact polarizability:  12.028   0.005   9.388   2.066  -0.001   7.766
 Approx polarizability:   8.303   0.005   7.087   1.553  -0.000   5.650

                      1                      2                      3
                      A                      A                      A
 Frequencies --    138.2505               176.6169               183.9494
 Red. masses --      1.0916                 1.0315                 1.0954
 Frc consts  --      0.0123                 0.0190                 0.0218
 IR Inten    --     11.6124               211.6493               395.8809
 Raman Activ --      5.1847                 9.3165                 1.3559

                      4                      5                      6
                      A                      A                      A
 Frequencies --    217.5785               408.2897               777.6406
 Red. masses --      6.4181                 1.0994                 1.0514
 Frc consts  --      0.1790                 0.1080                 0.3746
 IR Inten    --      0.9322               264.5594               365.5067
 Raman Activ --      0.0374                 3.7493                 0.6712

                      7                      8                      9
                      A                      A                      A
 Frequencies --   1755.4399              1786.4534              3928.7995
 Red. masses --      1.0934                 1.0853                 1.0450
 Frc consts  --      1.9852                 2.0407                 9.5039
 IR Inten    --    146.1095               164.9045               223.1521
 Raman Activ --      5.7453                 5.1036               100.8527

                     10                     11                     12
                      A                      A                      A
 Frequencies --   4031.6966              4138.9922              4185.4073
 Red. masses --      1.0371                 1.0807                 1.0894
 Frc consts  --      9.9324                10.9083                11.2437
 IR Inten    --      5.1060                89.8245                85.4593
 Raman Activ --     77.7387                48.5027                38.7580

 - Thermochemistry -
 -------------------
 Temperature   298.150 Kelvin.  Pressure   1.00000 Atm.
 Atom     1 has atomic number  8 and mass  15.99491

 Molecular mass:    36.02113 amu.
 Principal axes and moments of inertia in atomic units:
                           1         2         3
     Eigenvalues --     7.28391 266.26583 267.88778
           X            0.99967  -0.00014   0.02563
           Y            0.00012   1.00000   0.00070
           Z           -0.02563  -0.00070   0.99967
 This molecule is an asymmetric top.
 Rotational symmetry number  1.
 Rotational temperatures (Kelvin)     11.89113     0.32529     0.32332
 Rotational constants (GHZ):         247.77084     6.77797     6.73693
 Zero-point vibrational energy     129969.0 (Joules/Mol)
                                   31.06333 (Kcal/Mol)
 Warning -- explicit consideration of   5 degrees of freedom as
           vibrations may cause significant error
 Vibrational temperatures:    198.91   254.11   264.66   313.05   587.44
          (Kelvin)           1118.85  2525.69  2570.31  5652.67  5800.71
                             5955.09  6021.87

 Zero-point correction=                           0.049503 (Hartree/Particle)
 Thermal correction to Energy=                    0.055107
 Thermal correction to Enthalpy=                  0.056051
 Thermal correction to Gibbs Free Energy=         0.023657
 Sum of electronic and zero-point Energies=           -151.985428
 Sum of electronic and thermal Energies=              -151.979824
 Sum of electronic and thermal Enthalpies=            -151.978880
 Sum of electronic and thermal Free Energies=         -152.011274

                     E (Thermal)             CV                S
                      KCal/Mol        Cal/Mol-Kelvin    Cal/Mol-Kelvin
 Total                   34.580             15.621             68.179
 Electronic               0.000              0.000              0.000
 Translational            0.889              2.981             36.674
 Rotational               0.889              2.981             20.879
 Vibrational             32.803              9.659             10.625
 Vibration     1          0.614              1.915              2.828
 Vibration     2          0.628              1.871              2.364
 Vibration     3          0.631              1.862              2.288
 Vibration     4          0.646              1.814              1.979
 Vibration     5          0.773              1.452              0.933

 Optimization completed.
    -- Stationary point found.
 Normal termination of Gaussian 16 at Mon Sep 16 13:58:56 2024.
