                         Program Version 6.0.0  -   RELEASE  -
|  1> ! HF 6-311G OPT FREQ
|  2> * XYZ 0 1
|  3>   H      1.2001      0.0363      0.8431
|  4>   C      0.7031      0.0083     -0.1305
|  5>   H      0.9877      0.8943     -0.7114
|  6>   H      1.0155     -0.8918     -0.6742
|  7>   O     -0.6582     -0.0067      0.1730
|  8>   H     -1.1326     -0.0311     -0.6482
|  9> *
| 10>
| 11>                          ****END OF INPUT****
 Total Charge           Charge          ....    0
 Multiplicity           Mult            ....    1
 Number of Electrons    NEL             ....   18
FINAL SINGLE POINT ENERGY      -115.017495819711
FINAL SINGLE POINT ENERGY      -115.020384898788
FINAL SINGLE POINT ENERGY      -115.020491345686
FINAL SINGLE POINT ENERGY      -115.020507638455
FINAL SINGLE POINT ENERGY      -115.020508476649
                    ***********************HURRAY********************

CARTESIAN COORDINATES (ANGSTROEM)
---------------------------------
  H      1.220882    0.036303    0.827663
  C      0.725915    0.008722   -0.126353
  H      1.012203    0.883923   -0.695291
  H      1.039736   -0.880028   -0.658581
  O     -0.676712   -0.007548    0.143904
  H     -1.206425   -0.032072   -0.639541

 Multiplicity           Mult            ....    1
 Number of Electrons    NEL             ....   18
 Basis Dimension        Dim             ....   38

ORBITAL ENERGIES
----------------

  NO   OCC          E(Eh)            E(eV)
   0   2.0000     -20.543719      -559.0230
   1   2.0000     -11.275037      -306.8093
   2   2.0000      -1.357692       -36.9447
   3   2.0000      -0.939554       -25.5666
   4   2.0000      -0.686608       -18.6836
   5   2.0000      -0.623002       -16.9527
   6   2.0000      -0.591881       -16.1059
   7   2.0000      -0.491636       -13.3781
   8   2.0000      -0.447838       -12.1863
   9   0.0000       0.152612         4.1528
  10   0.0000       0.184384         5.0174
  11   0.0000       0.223157         6.0724
  12   0.0000       0.230350         6.2681
  13   0.0000       0.332573         9.0498

MULLIKEN ATOMIC CHARGES
-----------------------
   0 H :    0.183016
   1 C :   -0.151216
   2 H :    0.148393
   3 H :    0.148395
   4 O :   -0.716853
   5 H :    0.388266
Sum of atomic charges:    0.0000000

LOEWDIN ATOMIC CHARGES
----------------------
   0 H :    0.070658
   1 C :    0.018342
   2 H :    0.047401
   3 H :    0.047401
   4 O :   -0.438983
   5 H :    0.255181

  Mayer bond orders larger than 0.100000
B(  0-H ,  1-C ) :   0.9473 B(  1-C ,  2-H ) :   0.9424 B(  1-C ,  3-H ) :   0.9424
B(  1-C ,  4-O ) :   0.7483 B(  4-O ,  5-H ) :   0.8035

FINAL SINGLE POINT ENERGY      -115.020508534010

DIPOLE MOMENT
-------------

Method             : SCF
Type of density    : Electron Density
Multiplicity       :   1
Irrep              :   0
Energy             :  -115.0205085340099345 Eh
Relativity type    :
Basis              : AO
                                X                 Y                 Z
Electronic contribution:     -1.539215618      -0.018805529       0.250749894
Nuclear contribution   :      1.931555123       0.008429626      -1.045648910
                        -----------------------------------------
Total Dipole Moment    :      0.392339505      -0.010375903      -0.794899016
                        -----------------------------------------
Magnitude (a.u.)       :      0.886511360
Magnitude (Debye)      :      2.253332802

VIBRATIONAL FREQUENCIES
-----------------------

Scaling factor for frequencies =  1.000000000  (already applied!)

     0:       0.00 cm**-1
     1:       0.00 cm**-1
     2:       0.00 cm**-1
     3:       0.00 cm**-1
     4:       0.00 cm**-1
     5:       0.00 cm**-1
     6:     341.12 cm**-1
     7:    1114.98 cm**-1
     8:    1148.38 cm**-1
     9:    1263.01 cm**-1
    10:    1465.48 cm**-1
    11:    1625.65 cm**-1
    12:    1652.24 cm**-1
    13:    1661.13 cm**-1
    14:    3157.63 cm**-1
    15:    3210.83 cm**-1
    16:    3289.20 cm**-1
    17:    4067.65 cm**-1

IR SPECTRUM
-----------

 Mode   freq       eps      Int      T**2         TX        TY        TZ
       cm**-1   L/(mol*cm) km/mol    a.u.
----------------------------------------------------------------------------
  6:    341.12   0.040586  205.10  0.037129  ( 0.003012 -0.192624  0.004008)
  7:   1114.98   0.025524  128.99  0.007144  ( 0.082572  0.000912 -0.018020)
  8:   1148.38   0.003985   20.14  0.001083  (-0.030663 -0.000231  0.011937)
  9:   1263.01   0.000485    2.45  0.000120  ( 0.000173 -0.010944  0.000226)
 10:   1465.48   0.006523   32.96  0.001389  (-0.033375 -0.000177  0.016587)
 11:   1625.65   0.001262    6.38  0.000242  (-0.015135 -0.000160  0.003621)
 12:   1652.24   0.000893    4.51  0.000169  (-0.000197  0.012982 -0.000274)
 13:   1661.13   0.001052    5.32  0.000198  ( 0.010215  0.000360  0.009654)
 14:   3157.63   0.011296   57.09  0.001116  (-0.027813 -0.000056  0.018515)
 15:   3210.83   0.017987   90.90  0.001748  (-0.000659  0.041797 -0.000867)
 16:   3289.20   0.008216   41.52  0.000780  ( 0.009746  0.000699  0.026155)
 17:   4067.65   0.004133   20.88  0.000317  ( 0.016000  0.000411  0.007803)

--------------------------
THERMOCHEMISTRY AT 298.15K
--------------------------

Temperature         ...   298.15 K
Pressure            ...     1.00 atm
Total Mass          ...    32.04 AMU
Quasi RRHO          ...     True
Cut-Off Frequency   ...     1.00 cm^-1

Throughout the following assumptions are being made:
  (1) The electronic state is orbitally nondegenerate
  (2) There are no thermally accessible electronically excited states
  (3) Hindered rotations indicated by low frequency modes are not
      treated as such but are treated as vibrations and this may
      cause some error
  (4) All equations used are the standard statistical mechanics
      equations for an ideal gas
  (5) All vibrations are strictly harmonic

freq.     341.12  E(vib)   ...       0.23
freq.    1114.98  E(vib)   ...       0.01
freq.    1148.38  E(vib)   ...       0.01
freq.    1263.01  E(vib)   ...       0.01
freq.    1465.48  E(vib)   ...       0.00
freq.    1625.65  E(vib)   ...       0.00
freq.    1652.24  E(vib)   ...       0.00
freq.    1661.13  E(vib)   ...       0.00
freq.    3157.63  E(vib)   ...       0.00
freq.    3210.83  E(vib)   ...       0.00
freq.    3289.20  E(vib)   ...       0.00
freq.    4067.65  E(vib)   ...       0.00

------------
INNER ENERGY
------------

The inner energy is: U= E(el) + E(ZPE) + E(vib) + E(rot) + E(trans)
    E(el)   - is the total energy from the electronic structure calculation
              = E(kin-el) + E(nuc-el) + E(el-el) + E(nuc-nuc)
    E(ZPE)  - the the zero temperature vibrational energy from the frequency calculation
    E(vib)  - the the finite temperature correction to E(ZPE) due to population
              of excited vibrational states
    E(rot)  - is the rotational thermal energy
    E(trans)- is the translational thermal energy

Summary of contributions to the inner energy U:
Electronic energy                ...   -115.02050853 Eh
Zero point energy                ...      0.05466988 Eh      34.31 kcal/mol
Thermal vibrational correction   ...      0.00044203 Eh       0.28 kcal/mol
Thermal rotational correction    ...      0.00141627 Eh       0.89 kcal/mol
Thermal translational correction ...      0.00141627 Eh       0.89 kcal/mol
-----------------------------------------------------------------------
Total thermal energy                   -114.96256409 Eh

Summary of corrections to the electronic energy:
(perhaps to be used in another calculation)
Total thermal correction                  0.00327457 Eh       2.05 kcal/mol
Non-thermal (ZPE) correction              0.05466988 Eh      34.31 kcal/mol
-----------------------------------------------------------------------
Total correction                          0.05794445 Eh      36.36 kcal/mol

--------
ENTHALPY
--------

The enthalpy is H = U + kB*T
                kB is Boltzmann's constant
Total thermal energy              ...   -114.96256409 Eh
Thermal Enthalpy correction       ...      0.00094421 Eh       0.59 kcal/mol
-----------------------------------------------------------------------
Total Enthalpy                    ...   -114.96161988 Eh

Note: Rotational entropy computed according to Herzberg
Infrared and Raman Spectra, Chapter V,1, Van Nostrand Reinhold, 1945
Point Group:  Cs, Symmetry Number:   1
Rotational constants in cm-1:     4.430414     0.817139     0.791568

Vibrational entropy computed according to the QRRHO of S. Grimme
Chem.Eur.J. 2012 18 9955 using a reference frequency of 100.0 cm-1

-------
ENTROPY
-------

The entropy contributions are T*S = T*(S(el)+S(vib)+S(rot)+S(trans))
     S(el)   - electronic entropy
     S(vib)  - vibrational entropy
     S(rot)  - rotational entropy
     S(trans)- translational entropy
The entropies will be listed as multiplied by the temperature to get
units of energy

Electronic entropy                ...      0.00000000 Eh      0.00 kcal/mol
Vibrational entropy               ...      0.00065777 Eh      0.41 kcal/mol
Rotational entropy                ...      0.00901379 Eh      5.66 kcal/mol
Translational entropy             ...      0.01725935 Eh     10.83 kcal/mol
-----------------------------------------------------------------------
Final entropy term                ...      0.02693091 Eh     16.90 kcal/mol

In case the symmetry of your molecule has not been determined correctly
or in case you have a reason to use a different symmetry number we print
out the resulting rotational entropy values for sn=1,12:

 non-linear molecules -----------------------------------
|  sn= 1 | S(rot)=       0.00901379 Eh      5.66 kcal/mol|
|  sn= 2 | S(rot)=       0.00835933 Eh      5.25 kcal/mol|
|  sn= 3 | S(rot)=       0.00797650 Eh      5.01 kcal/mol|
|  sn= 4 | S(rot)=       0.00770488 Eh      4.83 kcal/mol|
|  sn= 5 | S(rot)=       0.00749419 Eh      4.70 kcal/mol|
|  sn= 6 | S(rot)=       0.00732204 Eh      4.59 kcal/mol|
|  sn= 7 | S(rot)=       0.00717650 Eh      4.50 kcal/mol|
|  sn= 8 | S(rot)=       0.00705042 Eh      4.42 kcal/mol|
|  sn= 9 | S(rot)=       0.00693921 Eh      4.35 kcal/mol|
|  sn=10 | S(rot)=       0.00683973 Eh      4.29 kcal/mol|
|  sn=11 | S(rot)=       0.00674974 Eh      4.24 kcal/mol|
|  sn=12 | S(rot)=       0.00666759 Eh      4.18 kcal/mol|
 linear molecules ---------------------------------------
|  Dinfh | S(rot)=       0.00554650 Eh      3.48 kcal/mol|
|  Cinfv | S(rot)=       0.00620096 Eh      3.89 kcal/mol|
 --------------------------------------------------------

-------------------
GIBBS FREE ENERGY
-------------------

The Gibbs free energy is G = H - T*S

Total enthalpy                    ...   -114.96161988 Eh
Total entropy correction          ...     -0.02693091 Eh    -16.90 kcal/mol
-----------------------------------------------------------------------
Final Gibbs free energy         ...   -114.98855079 Eh

For completeness - the Gibbs free energy minus the electronic energy
G-E(el)                           ...      0.03195775 Eh     20.05 kcal/mol

                             ****ORCA TERMINATED NORMALLY****
TOTAL RUN TIME: 0 days 0 hours 0 minutes 5 seconds 779 msec
