                         Program Version 6.0.0  -   RELEASE  -
|  1> ! HF 6-311g(d,p) opt freq
|  2>
|  3> * xyz 0 1
|  4>   H      1.2001      0.0363      0.8431
|  5>   C      0.7031      0.0083     -0.1305
|  6>   H      0.9877      0.8943     -0.7114
|  7>   H      1.0155     -0.8918     -0.6742
|  8>   O     -0.6582     -0.0067      0.1730
|  9>   H     -1.1326     -0.0311     -0.6482
| 10> *
| 11>
| 12>                          ****END OF INPUT****
 Total Charge           Charge          ....    0
 Multiplicity           Mult            ....    1
 Number of Electrons    NEL             ....   18
FINAL SINGLE POINT ENERGY      -115.074983311247
FINAL SINGLE POINT ENERGY      -115.075767503257
FINAL SINGLE POINT ENERGY      -115.075806798236
FINAL SINGLE POINT ENERGY      -115.075811367251
                    ***********************HURRAY********************

CARTESIAN COORDINATES (ANGSTROEM)
---------------------------------
  H      1.223924    0.036301    0.825261
  C      0.701918    0.008438   -0.121974
  H      0.991069    0.885937   -0.697355
  H      1.018681   -0.882785   -0.660545
  O     -0.669354   -0.007173    0.156491
  H     -1.150638   -0.031418   -0.650078

 Multiplicity           Mult            ....    1
 Number of Electrons    NEL             ....   18
 Basis Dimension        Dim             ....   60

ORBITAL ENERGIES
----------------

  NO   OCC          E(Eh)            E(eV)
   0   2.0000     -20.541104      -558.9519
   1   2.0000     -11.265655      -306.5541
   2   2.0000      -1.362037       -37.0629
   3   2.0000      -0.926741       -25.2179
   4   2.0000      -0.694437       -18.8966
   5   2.0000      -0.620891       -16.8953
   6   2.0000      -0.595669       -16.2090
   7   2.0000      -0.497895       -13.5484
   8   2.0000      -0.444895       -12.1062
   9   0.0000       0.155496         4.2313
  10   0.0000       0.189968         5.1693
  11   0.0000       0.226533         6.1643
  12   0.0000       0.233245         6.3469
  13   0.0000       0.347020         9.4429

MULLIKEN ATOMIC CHARGES
-----------------------
   0 H :    0.087295
   1 C :    0.010865
   2 H :    0.064843
   3 H :    0.064844
   4 O :   -0.471074
   5 H :    0.243228
Sum of atomic charges:    0.0000000

LOEWDIN ATOMIC CHARGES
----------------------
   0 H :   -0.004751
   1 C :    0.095821
   2 H :   -0.021118
   3 H :   -0.021118
   4 O :   -0.062478
   5 H :    0.013643

  Mayer bond orders larger than 0.100000
B(  0-H ,  1-C ) :   0.9867 B(  1-C ,  2-H ) :   0.9834 B(  1-C ,  3-H ) :   0.9834
B(  1-C ,  4-O ) :   0.9208 B(  4-O ,  5-H ) :   0.9634

FINAL SINGLE POINT ENERGY      -115.075811966975

DIPOLE MOMENT
-------------

Method             : SCF
Type of density    : Electron Density
Multiplicity       :   1
Irrep              :   0
Energy             :  -115.0758119669746691 Eh
Relativity type    :
Basis              : AO
                                X                 Y                 Z
Electronic contribution:     -1.677687915      -0.017277821       0.428551774
Nuclear contribution   :      1.965349429       0.008058427      -1.089232878
                        -----------------------------------------
Total Dipole Moment    :      0.287661514      -0.009219393      -0.660681104
                        -----------------------------------------
Magnitude (a.u.)       :      0.720648087
Magnitude (Debye)      :      1.831741866

VIBRATIONAL FREQUENCIES
-----------------------

Scaling factor for frequencies =  1.000000000  (already applied!)

     0:       0.00 cm**-1
     1:       0.00 cm**-1
     2:       0.00 cm**-1
     3:       0.00 cm**-1
     4:       0.00 cm**-1
     5:       0.00 cm**-1
     6:     341.86 cm**-1
     7:    1159.51 cm**-1
     8:    1178.70 cm**-1
     9:    1277.00 cm**-1
    10:    1488.50 cm**-1
    11:    1614.95 cm**-1
    12:    1618.68 cm**-1
    13:    1630.04 cm**-1
    14:    3140.18 cm**-1
    15:    3184.53 cm**-1
    16:    3256.83 cm**-1
    17:    4186.06 cm**-1

IR SPECTRUM
-----------

 Mode   freq       eps      Int      T**2         TX        TY        TZ
       cm**-1   L/(mol*cm) km/mol    a.u.
----------------------------------------------------------------------------
  6:    341.86   0.027173  137.32  0.024804  ( 0.002469 -0.157440  0.003309)
  7:   1159.51   0.010225   51.67  0.002752  (-0.051320 -0.000575  0.010861)
  8:   1178.70   0.017919   90.55  0.004744  (-0.067146 -0.000730  0.015328)
  9:   1277.00   0.000572    2.89  0.000140  (-0.000187  0.011818 -0.000242)
 10:   1488.50   0.007563   38.22  0.001586  ( 0.036566  0.000243 -0.015761)
 11:   1614.95   0.001796    9.08  0.000347  (-0.017724 -0.000153  0.005735)
 12:   1618.68   0.000430    2.17  0.000083  (-0.000130  0.009106 -0.000198)
 13:   1630.04   0.000848    4.29  0.000162  (-0.010012 -0.000320 -0.007880)
 14:   3140.18   0.013038   65.89  0.001296  (-0.029674 -0.000045  0.020376)
 15:   3184.53   0.019429   98.18  0.001904  (-0.000685  0.043619 -0.000906)
 16:   3256.83   0.009854   49.80  0.000944  ( 0.011365  0.000772  0.028538)
 17:   4186.06   0.009354   47.27  0.000697  ( 0.018062  0.000680  0.019251)

--------------------------
THERMOCHEMISTRY AT 298.15K
--------------------------

Temperature         ...   298.15 K
Pressure            ...     1.00 atm
Total Mass          ...    32.04 AMU
Quasi RRHO          ...     True
Cut-Off Frequency   ...     1.00 cm^-1

Throughout the following assumptions are being made:
  (1) The electronic state is orbitally nondegenerate
  (2) There are no thermally accessible electronically excited states
  (3) Hindered rotations indicated by low frequency modes are not
      treated as such but are treated as vibrations and this may
      cause some error
  (4) All equations used are the standard statistical mechanics
      equations for an ideal gas
  (5) All vibrations are strictly harmonic

freq.     341.86  E(vib)   ...       0.23
freq.    1159.51  E(vib)   ...       0.01
freq.    1178.70  E(vib)   ...       0.01
freq.    1277.00  E(vib)   ...       0.01
freq.    1488.50  E(vib)   ...       0.00
freq.    1614.95  E(vib)   ...       0.00
freq.    1618.68  E(vib)   ...       0.00
freq.    1630.04  E(vib)   ...       0.00
freq.    3140.18  E(vib)   ...       0.00
freq.    3184.53  E(vib)   ...       0.00
freq.    3256.83  E(vib)   ...       0.00
freq.    4186.06  E(vib)   ...       0.00

------------
INNER ENERGY
------------

The inner energy is: U= E(el) + E(ZPE) + E(vib) + E(rot) + E(trans)
    E(el)   - is the total energy from the electronic structure calculation
              = E(kin-el) + E(nuc-el) + E(el-el) + E(nuc-nuc)
    E(ZPE)  - the the zero temperature vibrational energy from the frequency calculation
    E(vib)  - the the finite temperature correction to E(ZPE) due to population
              of excited vibrational states
    E(rot)  - is the rotational thermal energy
    E(trans)- is the translational thermal energy

Summary of contributions to the inner energy U:
Electronic energy                ...   -115.07581197 Eh
Zero point energy                ...      0.05485109 Eh      34.42 kcal/mol
Thermal vibrational correction   ...      0.00043469 Eh       0.27 kcal/mol
Thermal rotational correction    ...      0.00141627 Eh       0.89 kcal/mol
Thermal translational correction ...      0.00141627 Eh       0.89 kcal/mol
-----------------------------------------------------------------------
Total thermal energy                   -115.01769365 Eh

Summary of corrections to the electronic energy:
(perhaps to be used in another calculation)
Total thermal correction                  0.00326723 Eh       2.05 kcal/mol
Non-thermal (ZPE) correction              0.05485109 Eh      34.42 kcal/mol
-----------------------------------------------------------------------
Total correction                          0.05811832 Eh      36.47 kcal/mol

--------
ENTHALPY
--------

The enthalpy is H = U + kB*T
                kB is Boltzmann's constant
Total thermal energy              ...   -115.01769365 Eh
Thermal Enthalpy correction       ...      0.00094421 Eh       0.59 kcal/mol
-----------------------------------------------------------------------
Total Enthalpy                    ...   -115.01674944 Eh

Note: Rotational entropy computed according to Herzberg
Infrared and Raman Spectra, Chapter V,1, Van Nostrand Reinhold, 1945
Point Group:  Cs, Symmetry Number:   1
Rotational constants in cm-1:     4.377491     0.847749     0.819103

Vibrational entropy computed according to the QRRHO of S. Grimme
Chem.Eur.J. 2012 18 9955 using a reference frequency of 100.0 cm-1

-------
ENTROPY
-------

The entropy contributions are T*S = T*(S(el)+S(vib)+S(rot)+S(trans))
     S(el)   - electronic entropy
     S(vib)  - vibrational entropy
     S(rot)  - rotational entropy
     S(trans)- translational entropy
The entropies will be listed as multiplied by the temperature to get
units of energy

Electronic entropy                ...      0.00000000 Eh      0.00 kcal/mol
Vibrational entropy               ...      0.00064817 Eh      0.41 kcal/mol
Rotational entropy                ...      0.00898596 Eh      5.64 kcal/mol
Translational entropy             ...      0.01725935 Eh     10.83 kcal/mol
-----------------------------------------------------------------------
Final entropy term                ...      0.02689348 Eh     16.88 kcal/mol

In case the symmetry of your molecule has not been determined correctly
or in case you have a reason to use a different symmetry number we print
out the resulting rotational entropy values for sn=1,12:

 non-linear molecules -----------------------------------
|  sn= 1 | S(rot)=       0.00898596 Eh      5.64 kcal/mol|
|  sn= 2 | S(rot)=       0.00833150 Eh      5.23 kcal/mol|
|  sn= 3 | S(rot)=       0.00794867 Eh      4.99 kcal/mol|
|  sn= 4 | S(rot)=       0.00767705 Eh      4.82 kcal/mol|
|  sn= 5 | S(rot)=       0.00746636 Eh      4.69 kcal/mol|
|  sn= 6 | S(rot)=       0.00729421 Eh      4.58 kcal/mol|
|  sn= 7 | S(rot)=       0.00714867 Eh      4.49 kcal/mol|
|  sn= 8 | S(rot)=       0.00702259 Eh      4.41 kcal/mol|
|  sn= 9 | S(rot)=       0.00691138 Eh      4.34 kcal/mol|
|  sn=10 | S(rot)=       0.00681190 Eh      4.27 kcal/mol|
|  sn=11 | S(rot)=       0.00672191 Eh      4.22 kcal/mol|
|  sn=12 | S(rot)=       0.00663976 Eh      4.17 kcal/mol|
 linear molecules ---------------------------------------
|  Dinfh | S(rot)=       0.00551421 Eh      3.46 kcal/mol|
|  Cinfv | S(rot)=       0.00616867 Eh      3.87 kcal/mol|
 --------------------------------------------------------

-------------------
GIBBS FREE ENERGY
-------------------

The Gibbs free energy is G = H - T*S

Total enthalpy                    ...   -115.01674944 Eh
Total entropy correction          ...     -0.02689348 Eh    -16.88 kcal/mol
-----------------------------------------------------------------------
Final Gibbs free energy         ...   -115.04364291 Eh

For completeness - the Gibbs free energy minus the electronic energy
G-E(el)                           ...      0.03216905 Eh     20.19 kcal/mol

                             ****ORCA TERMINATED NORMALLY****
TOTAL RUN TIME: 0 days 0 hours 0 minutes 13 seconds 615 msec
