 Gaussian 16, Revision A.03,
 Gaussian 16:  ES64L-G16RevA.03 25-Dec-2016

 --------------------------
 #p opt freq hf/6-311g(d,p)
 --------------------------

 ------------------
 CH3NH2 Calculation
 ------------------
 Symbolic Z-matrix:
 Charge =  0 Multiplicity = 1

 SCF Done:  E(RHF) =  -95.2411740666     A.U. after   11 cycles
 SCF Done:  E(RHF) =  -95.2424173008     A.U. after   11 cycles
 SCF Done:  E(RHF) =  -95.2425112567     A.U. after    9 cycles
 SCF Done:  E(RHF) =  -95.2425142378     A.U. after    8 cycles
 Optimization completed.
    -- Stationary point found.
 Normal termination of Gaussian 16 at Wed Sep 11 14:18:24 2024.

 --------------------------------------------------------------------
 #P Geom=AllCheck Guess=TCheck SCRF=Check GenChk RHF/6-311G(d,p) Freq
 --------------------------------------------------------------------

 Structure from the checkpoint file:  "ch3f.chk"
 ------------------
 CH3NH2 Calculation
 ------------------
 Charge =  0 Multiplicity = 1

                         Standard orientation:
 ---------------------------------------------------------------------
 Center     Atomic      Atomic             Coordinates (Angstroms)
 Number     Number       Type             X           Y           Z
 ---------------------------------------------------------------------
      1          7           0        0.049034   -0.752999   -0.000000
      2          6           0        0.049034    0.700944    0.000000
      3          1           0       -0.942902    1.156738    0.000000
      4          1           0        0.582352    1.060753    0.873615
      5          1           0        0.582352    1.060753   -0.873615
      6          1           0       -0.429625   -1.106460   -0.803800
      7          1           0       -0.429625   -1.106460    0.803800
 ---------------------------------------------------------------------

 SCF Done:  E(RHF) =  -95.2425142378     A.U. after    1 cycles

 The electronic state is 1-A'.
 Alpha  occ. eigenvalues --  -15.52487 -11.23662  -1.17031  -0.89590  -0.66379
 Alpha  occ. eigenvalues --   -0.60199  -0.55689  -0.51636  -0.38537
 Alpha virt. eigenvalues --    0.15824   0.19433   0.21059   0.23265   0.25937
 Alpha virt. eigenvalues --    0.37836   0.46499   0.48496   0.55578   0.56567
 Alpha virt. eigenvalues --    0.70868   0.76518   0.81112   0.81237   0.85260

 Mulliken charges:
               1
     1  N   -0.508928
     2  C   -0.094738
     3  H    0.063528
     4  H    0.087133
     5  H    0.087133
     6  H    0.182936
     7  H    0.182936
 Sum of Mulliken charges =   0.00000

 Dipole moment (field-independent basis, Debye):
    X=             -1.3724    Y=              0.3790    Z=             -0.0000  Tot=              1.4238
 Quadrupole moment (field-independent basis, Debye-Ang):
   XX=            -14.8131   YY=            -14.0890   ZZ=            -12.4987
   XY=              2.1437   XZ=              0.0000   YZ=              0.0000

  Exact polarizability:  17.711   0.864  21.114  -0.000   0.000  19.782
 Approx polarizability:  15.216   0.517  16.579   0.000   0.000  17.251

                      1                      2                      3
                     A"                     A'                     A"
 Frequencies --    335.8660               926.5227              1045.6337
 Red. masses --      1.0295                 1.1611                 1.0474
 Frc consts  --      0.0684                 0.5873                 0.6747
 IR Inten    --     40.3683               165.7869                 0.0598
 Raman Activ --      1.2989                 2.5987                 0.1583

                      4                      5                      6
                     A'                     A'                     A"
 Frequencies --   1139.4544              1271.0192              1461.9984
 Red. masses --      4.0371                 1.3674                 1.3483
 Frc consts  --      3.0883                 1.3015                 1.6980
 IR Inten    --     20.5080                15.6885                 0.0042
 Raman Activ --     11.6324                 1.8954                 2.2388

                      7                      8                      9
                     A'                     A'                     A"
 Frequencies --   1583.0792              1617.2222              1635.9865
 Red. masses --      1.1756                 1.0569                 1.0355
 Frc consts  --      1.7358                 1.6287                 1.6330
 IR Inten    --      3.3799                 6.4182                 2.6574
 Raman Activ --      2.7816                13.1457                13.8845

                     10                     11                     12
                     A'                     A'                     A'
 Frequencies --   1801.9936              3114.2729              3197.9223
 Red. masses --      1.0916                 1.0572                 1.0781
 Frc consts  --      2.0884                 6.0411                 6.4959
 IR Inten    --     27.6275               100.7452                59.2570
 Raman Activ --      5.2709               130.2020                97.8003

                     13                     14                     15
                     A"                     A'                     A"
 Frequencies --   3230.8987              3723.7348              3798.7759
 Red. masses --      1.1044                 1.0503                 1.0940
 Frc consts  --      6.7922                 8.5803                 9.3015
 IR Inten    --     54.9673                 0.2566                 0.3311
 Raman Activ --     77.0775                96.2999                62.3140

 - Thermochemistry -
 -------------------
 Temperature   298.150 Kelvin.  Pressure   1.00000 Atm.
 Atom     1 has atomic number  7 and mass  14.00307

 Molecular mass:    31.04220 amu.
 Principal axes and moments of inertia in atomic units:
                           1         2         3
     Eigenvalues --    17.08329  78.15283  81.35784
           X            0.05682   0.00000   0.99838
           Y            0.99838   0.00000  -0.05682
           Z           -0.00000   1.00000  -0.00000
 This molecule is an asymmetric top.
 Rotational symmetry number  1.
 Rotational temperatures (Kelvin)      5.07009     1.10826     1.06460
 Rotational constants (GHZ):         105.64363    23.09246    22.18276
 Zero-point vibrational energy     178748.3 (Joules/Mol)
                                   42.72187 (Kcal/Mol)
 Warning -- explicit consideration of   1 degrees of freedom as
           vibrations may cause significant error
 Vibrational temperatures:    483.24  1333.06  1504.43  1639.42  1828.71
          (Kelvin)           2103.49  2277.70  2326.82  2353.82  2592.67
                             4480.74  4601.10  4648.54  5357.62  5465.59

 Zero-point correction=                           0.068082 (Hartree/Particle)
 Thermal correction to Energy=                    0.071421
 Thermal correction to Enthalpy=                  0.072366
 Thermal correction to Gibbs Free Energy=         0.045229
 Sum of electronic and zero-point Energies=            -95.174433
 Sum of electronic and thermal Energies=               -95.171093
 Sum of electronic and thermal Enthalpies=             -95.170149
 Sum of electronic and thermal Free Energies=          -95.197285

                     E (Thermal)             CV                S
                      KCal/Mol        Cal/Mol-Kelvin    Cal/Mol-Kelvin
 Total                   44.818              9.033             57.113
 Electronic               0.000              0.000              0.000
 Translational            0.889              2.981             36.231
 Rotational               0.889              2.981             19.324
 Vibrational             43.040              3.072              1.558
 Vibration     1          0.717              1.604              1.232

 Optimization completed.
    -- Stationary point found.
 Normal termination of Gaussian 16 at Wed Sep 11 14:18:28 2024.
