 Gaussian 16, Revision A.03,
 Gaussian 16:  ES64L-G16RevA.03 25-Dec-2016

 ---------------------------------------
 #p opt freq hf/6-311g geom=connectivity
 ---------------------------------------

 -------------------
 Title Card Required
 -------------------
 Symbolic Z-matrix:
 Charge =  0 Multiplicity = 2

 SCF Done:  E(UHF) =  -153.439121769     A.U. after   17 cycles
 SCF Done:  E(UHF) =  -153.441192713     A.U. after   22 cycles
 SCF Done:  E(UHF) =  -153.441333292     A.U. after   21 cycles
 SCF Done:  E(UHF) =  -153.441336299     A.U. after    9 cycles
 Optimization completed.
    -- Stationary point found.
 Normal termination of Gaussian 16 at Mon Sep 16 13:46:38 2024.

 ---------------------------------------------------------------
 #P Geom=AllCheck Guess=TCheck SCRF=Check GenChk UHF/6-311G Freq
 ---------------------------------------------------------------

 Structure from the checkpoint file:  "ethanol.chk"
 -------------------
 Title Card Required
 -------------------
 Charge =  0 Multiplicity = 2

                         Standard orientation:
 ---------------------------------------------------------------------
 Center     Atomic      Atomic             Coordinates (Angstroms)
 Number     Number       Type             X           Y           Z
 ---------------------------------------------------------------------
      1          6           0       -0.150615    0.518579    0.000001
      2          1           0       -0.262427    1.152774   -0.870802
      3          1           0       -0.262441    1.152786    0.870794
      4          6           0        1.175457   -0.213461    0.000001
      5          1           0        1.264898   -0.841970    0.875031
      6          1           0        1.264964   -0.841815   -0.875134
      7          1           0        2.000251    0.488187    0.000096
      8          8           0       -1.269287   -0.367584    0.000000
 ---------------------------------------------------------------------

 SCF Done:  E(UHF) =  -153.441336299     A.U. after    1 cycles

 The electronic state is 2-A.
 Alpha  occ. eigenvalues --  -20.60974 -11.29151 -11.22642  -1.38801  -1.02627
 Alpha  occ. eigenvalues --   -0.85591  -0.70365  -0.64112  -0.59633  -0.58034
 Alpha  occ. eigenvalues --   -0.53806  -0.49804  -0.47478
 Alpha virt. eigenvalues --    0.15303   0.19150   0.19829   0.22369   0.24789
 Alpha virt. eigenvalues --    0.30297   0.37095   0.44685   0.45662   0.52145
 Alpha virt. eigenvalues --    0.53832   0.67131   0.71644   0.77212   0.77597

  Beta  occ. eigenvalues --  -20.56864 -11.29472 -11.22639  -1.25561  -1.00924
  Beta  occ. eigenvalues --   -0.83902  -0.64174  -0.62109  -0.57403  -0.51989
  Beta  occ. eigenvalues --   -0.51833  -0.43773
  Beta virt. eigenvalues --    0.12632   0.15364   0.19191   0.19909   0.22395
  Beta virt. eigenvalues --    0.25759   0.31795   0.37020   0.44956   0.45679
  Beta virt. eigenvalues --    0.52506   0.57570   0.67930   0.72296   0.77223

 Mulliken charges and spin densities:
               1          2
     1  C   -0.081620  -0.159316
     2  H    0.190673   0.059915
     3  H    0.190671   0.059908
     4  C   -0.495581   0.011262
     5  H    0.180553  -0.000843
     6  H    0.180549  -0.000843
     7  H    0.166032  -0.004839
     8  O   -0.331278   1.034755
 Sum of Mulliken charges =  -0.00000   1.00000

 Dipole moment (field-independent basis, Debye):
    X=              1.8695    Y=              1.4355    Z=             -0.0000  Tot=              2.3570
 Quadrupole moment (field-independent basis, Debye-Ang):
   XX=            -22.6080   YY=            -19.2885   ZZ=            -18.0949
   XY=             -1.2286   XZ=              0.0000   YZ=             -0.0001

  Exact polarizability:  25.116   0.933  23.656  -0.000   0.000  24.233
 Approx polarizability:  19.326   1.624  19.413   0.000  -0.000  18.868

                      1                      2                      3
                      A                      A                      A
 Frequencies --    232.6133               450.7025               454.7827
 Red. masses --      1.2334                 3.0384                 1.2136
 Frc consts  --      0.0393                 0.3636                 0.1479
 IR Inten    --      0.0440                 8.5247                17.2112
 Raman Activ --      5.6093                 3.2091                92.1620

                      4                      5                      6
                      A                      A                      A
 Frequencies --    941.0392               994.0917              1131.5247
 Red. masses --      3.1260                 1.0654                 3.3170
 Frc consts  --      1.6310                 0.6203                 2.5022
 IR Inten    --      6.8001                 0.0153                27.9879
 Raman Activ --     11.2676                12.7613                 9.6836

                      7                      8                      9
                      A                      A                      A
 Frequencies --   1213.3813              1391.7172              1522.5890
 Red. masses --      1.7720                 1.2860                 1.3101
 Frc consts  --      1.5371                 1.4675                 1.7895
 IR Inten    --      8.1413                 0.4016                11.0961
 Raman Activ --     16.7297                 7.5333                25.3347

                     10                     11                     12
                      A                      A                      A
 Frequencies --   1574.2630              1617.0725              1636.5172
 Red. masses --      1.2425                 1.0864                 1.0430
 Frc consts  --      1.8142                 1.6738                 1.6459
 IR Inten    --     10.5082                 5.1641                 4.5675
 Raman Activ --      5.8936                27.9515                11.2691

                     13                     14                     15
                      A                      A                      A
 Frequencies --   1648.9031              3160.1632              3171.4147
 Red. masses --      1.0497                 1.0465                 1.0478
 Frc consts  --      1.6815                 6.1575                 6.2094
 IR Inten    --      8.0020                42.8176                 7.8195
 Raman Activ --     13.9481                25.7356               245.7681

                     16                     17                     18
                      A                      A                      A
 Frequencies --   3194.0589              3231.9026              3246.4268
 Red. masses --      1.0964                 1.0993                 1.1023
 Frc consts  --      6.5900                 6.7653                 6.8450
 IR Inten    --      6.2919                46.8477                56.1816
 Raman Activ --    121.5356                60.8797                27.5772

 - Thermochemistry -
 -------------------
 Temperature   298.150 Kelvin.  Pressure   1.00000 Atm.
 Atom     1 has atomic number  6 and mass  12.00000

 Molecular mass:    45.03404 amu.
 Principal axes and moments of inertia in atomic units:
                           1         2         3
     Eigenvalues --    47.34905 188.58483 213.99349
           X            0.99913  -0.04164  -0.00000
           Y            0.04164   0.99913  -0.00000
           Z            0.00000   0.00000   1.00000
 This molecule is an asymmetric top.
 Rotational symmetry number  1.
 Rotational temperatures (Kelvin)      1.82926     0.45928     0.40475
 Rotational constants (GHZ):          38.11568     9.56992     8.43363
 Zero-point vibrational energy     184303.6 (Joules/Mol)
                                   44.04963 (Kcal/Mol)
 Warning -- explicit consideration of   3 degrees of freedom as
           vibrations may cause significant error
 Vibrational temperatures:    334.68   648.46   654.33  1353.95  1430.28
          (Kelvin)           1628.01  1745.79  2002.37  2190.67  2265.01
                             2326.61  2354.58  2372.40  4546.77  4562.96
                             4595.54  4649.99  4670.88

 Zero-point correction=                           0.070198 (Hartree/Particle)
 Thermal correction to Energy=                    0.074210
 Thermal correction to Enthalpy=                  0.075155
 Thermal correction to Gibbs Free Energy=         0.044418
 Sum of electronic and zero-point Energies=           -153.371139
 Sum of electronic and thermal Energies=              -153.367126
 Sum of electronic and thermal Enthalpies=            -153.366182
 Sum of electronic and thermal Free Energies=         -153.396918

                     E (Thermal)             CV                S
                      KCal/Mol        Cal/Mol-Kelvin    Cal/Mol-Kelvin
 Total                   46.568             12.119             64.691
 Electronic               0.000              0.000              1.377
 Translational            0.889              2.981             37.340
 Rotational               0.889              2.981             22.173
 Vibrational             44.790              6.157              3.800
 Vibration     1          0.653              1.791              1.859
 Vibration     2          0.809              1.359              0.794
 Vibration     3          0.813              1.350              0.781

 Optimization completed.
    -- Stationary point found.
 Normal termination of Gaussian 16 at Mon Sep 16 13:46:40 2024.
