 Gaussian 16, Revision A.03,
 Gaussian 16:  AS64L-G16RevA.03 25-Dec-2016

 ----------------------------------------------------------------------
 # B3LYP/6-311++G(3df,3pd) SCAN SCF=VERYTIGHT INT=ULTRAFINE # GEOM=NOCR
 OWD NOSYMM POP=ALWAYS
 ----------------------------------------------------------------------

 ---------------------------
 Trans_Acetic_acid bond_scan
 ---------------------------
 Symbolic Z-matrix:
 Charge =  0 Multiplicity = 1

 SCF Done:  E(RB3LYP) =  -228.191254256     A.U. after   11 cycles
 SCF Done:  E(RB3LYP) =  -228.266198806     A.U. after    9 cycles
 SCF Done:  E(RB3LYP) =  -228.335739567     A.U. after    9 cycles
 SCF Done:  E(RB3LYP) =  -228.400282122     A.U. after    9 cycles
 SCF Done:  E(RB3LYP) =  -228.460198320     A.U. after    9 cycles
 SCF Done:  E(RB3LYP) =  -228.515829590     A.U. after    9 cycles
 SCF Done:  E(RB3LYP) =  -228.567489645     A.U. after    9 cycles
 SCF Done:  E(RB3LYP) =  -228.615466876     A.U. after    9 cycles
 SCF Done:  E(RB3LYP) =  -228.660026730     A.U. after    9 cycles
 SCF Done:  E(RB3LYP) =  -228.701413928     A.U. after    9 cycles
 SCF Done:  E(RB3LYP) =  -229.024310491     A.U. after    9 cycles
 SCF Done:  E(RB3LYP) =  -229.022897658     A.U. after    9 cycles
 SCF Done:  E(RB3LYP) =  -229.021499599     A.U. after    9 cycles
 SCF Done:  E(RB3LYP) =  -229.020116196     A.U. after    9 cycles
 SCF Done:  E(RB3LYP) =  -229.018747331     A.U. after    9 cycles
 SCF Done:  E(RB3LYP) =  -229.017392881     A.U. after    9 cycles
 SCF Done:  E(RB3LYP) =  -229.016052727     A.U. after    9 cycles
 SCF Done:  E(RB3LYP) =  -229.014726746     A.U. after    9 cycles
 SCF Done:  E(RB3LYP) =  -229.013414817     A.U. after    9 cycles

                         Z-Matrix orientation:
 ---------------------------------------------------------------------
 Center     Atomic      Atomic             Coordinates (Angstroms)
 Number     Number       Type             X           Y           Z
 ---------------------------------------------------------------------
      1          8           0        0.000000    0.000000    0.000000
      2          1           0        0.000000    0.000000    1.967806
      3          6           0        1.295861    0.000000   -0.396617
      4          8           0        2.207952    0.000000    0.386555
      5          6           0        1.416268   -0.000000   -1.893753
      6          1           0        2.463694   -0.000010   -2.175261
      7          1           0        0.917786   -0.877701   -2.304483
      8          1           0        0.917800    0.877711   -2.304478
 ---------------------------------------------------------------------

 SCF Done:  E(RB3LYP) =  -229.012116816     A.U. after    9 cycles

 Alpha  occ. eigenvalues --  -19.18283 -19.12192 -10.30832 -10.20045  -1.08688
 Alpha  occ. eigenvalues --   -0.99245  -0.76367  -0.55199  -0.48495  -0.47645
 Alpha  occ. eigenvalues --   -0.47111  -0.42143  -0.39856  -0.34752  -0.31851
 Alpha  occ. eigenvalues --   -0.28566
 Alpha virt. eigenvalues --   -0.19068  -0.00612  -0.00387   0.03357   0.03553
 Alpha virt. eigenvalues --    0.03889   0.05065   0.07217   0.08087   0.09052
 Alpha virt. eigenvalues --    0.09355   0.10513   0.11505   0.14076   0.16234

 Mulliken charges:
               1
     1  O   -0.560602
     2  H    0.256260
     3  C    1.054760
     4  O   -0.678906
     5  C   -0.264219
     6  H    0.050140
     7  H    0.071284
     8  H    0.071284
 Sum of Mulliken charges =  -0.00000

 Dipole moment (field-independent basis, Debye):
    X=             -1.0027    Y=             -0.0000    Z=             -0.7591  Tot=              1.2576
 Quadrupole moment (field-independent basis, Debye-Ang):
   XX=            -30.4650   YY=            -23.9887   ZZ=            -16.0043
   XY=             -0.0000   XZ=             -5.2582   YZ=              0.0000

 Normal termination of Gaussian 16 at Fri Nov  8 11:13:41 2024.
