 Gaussian 16, Revision A.03,
 Gaussian 16:  AS64L-G16RevA.03 25-Dec-2016

 ----------------------------------------------------------
 # freq b3lyp/6-311++g(3df,3pd) int=ultrafine scf=verytight
 ----------------------------------------------------------

 ----------------------
 Trans_Acetic_acid freq
 ----------------------
 Symbolic Z-matrix:
 Charge =  0 Multiplicity = 1

                         Standard orientation:
 ---------------------------------------------------------------------
 Center     Atomic      Atomic             Coordinates (Angstroms)
 Number     Number       Type             X           Y           Z
 ---------------------------------------------------------------------
      1          8           0        0.793880   -1.030647   -0.000000
      2          1           0        1.731766   -0.791459   -0.000000
      3          6           0        0.089332    0.127011    0.000000
      4          8           0        0.622819    1.204351    0.000000
      5          6           0       -1.391125   -0.126287    0.000000
      6          1           0       -1.922741    0.819087   -0.000010
      7          1           0       -1.665932   -0.710808   -0.877701
      8          1           0       -1.665931   -0.710793    0.877711
 ---------------------------------------------------------------------

 SCF Done:  E(RB3LYP) =  -229.181571487     A.U. after   11 cycles

 The electronic state is 1-A.
 Alpha  occ. eigenvalues --  -19.17981 -19.12242 -10.31444 -10.19013  -1.11946
 Alpha  occ. eigenvalues --   -1.03011  -0.76988  -0.62381  -0.50313  -0.49112
 Alpha  occ. eigenvalues --   -0.48207  -0.42288  -0.40900  -0.40468  -0.33782
 Alpha  occ. eigenvalues --   -0.29255
 Alpha virt. eigenvalues --   -0.01528  -0.00989   0.00754   0.03316   0.03513
 Alpha virt. eigenvalues --    0.05252   0.07241   0.08128   0.08772   0.09333
 Alpha virt. eigenvalues --    0.09809   0.11781   0.12121   0.15653   0.16575

 Mulliken charges:
               1
     1  O   -0.728658
     2  H    0.468483
     3  C    1.077387
     4  O   -0.707409
     5  C   -0.278193
     6  H    0.038936
     7  H    0.064727
     8  H    0.064727
 Sum of Mulliken charges =  -0.00000

 Dipole moment (field-independent basis, Debye):
    X=             -0.7941    Y=             -1.5942    Z=              0.0000  Tot=              1.7811
 Quadrupole moment (field-independent basis, Debye-Ang):
   XX=            -19.3031   YY=            -28.8081   ZZ=            -23.3504
   XY=             -2.1798   XZ=              0.0000   YZ=             -0.0000

  Exact polarizability:  38.898   0.817  37.238  -0.000  -0.000  26.338
 Approx polarizability:  48.271   2.824  55.904  -0.000  -0.000  36.749

                      1                      2                      3
                      A                      A                      A
 Frequencies --     79.5339               418.0185               435.7238
 Red. masses --      1.0858                 2.9341                 2.1432
 Frc consts  --      0.0040                 0.3021                 0.2397
 IR Inten    --      0.1734                 6.3899                44.4448

                      4                      5                      6
                      A                      A                      A
 Frequencies --    550.6445               616.7916               809.8477
 Red. masses --      4.3503                 2.7078                 3.3489
 Frc consts  --      0.7772                 0.6069                 1.2941
 IR Inten    --     38.5339                21.4945                 1.6576

                      7                      8                      9
                      A                      A                      A
 Frequencies --    971.4272              1062.3297              1070.2977
 Red. masses --      2.5162                 2.2185                 1.8164
 Frc consts  --      1.3990                 1.4751                 1.2260
 IR Inten    --     96.5294                 8.3070                 7.0555

                     10                     11                     12
                      A                      A                      A
 Frequencies --   1285.9796              1405.6899              1472.8019
 Red. masses --      3.8894                 1.3728                 1.0511
 Frc consts  --      3.7897                 1.5983                 1.3433
 IR Inten    --    190.3237                44.7449                16.2690

                     13                     14                     15
                      A                      A                      A
 Frequencies --   1478.4739              1811.6060              2729.9821
 Red. masses --      1.0452                11.1350                 2.2288
 Frc consts  --      1.3461                21.5312                 9.7868
 IR Inten    --      8.2590               328.7012                38.1885

                     16                     17                     18
                      A                      A                      A
 Frequencies --   3053.6280              3111.3546              3163.7781
 Red. masses --      1.0370                 1.0996                 1.1028
 Frc consts  --      5.6970                 6.2715                 6.5034
 IR Inten    --      1.6762                 3.3664                 4.1809

 - Thermochemistry -
 -------------------
 Temperature   298.150 Kelvin.  Pressure   1.00000 Atm.
 Atom     1 has atomic number  8 and mass  15.99491

 Molecular mass:    61.02730 amu.
 Principal axes and moments of inertia in atomic units:
                           1         2         3
     Eigenvalues --   160.74174 200.45989 350.11139
           X            0.99701   0.07722   0.00000
           Y           -0.07722   0.99701  -0.00000
           Z           -0.00000   0.00000   1.00000
 This molecule is an asymmetric top.
 Rotational symmetry number  1.
 Rotational temperatures (Kelvin)      0.53884     0.43208     0.24739
 Rotational constants (GHZ):          11.22758     9.00300     5.15476
 Zero-point vibrational energy     152690.8 (Joules/Mol)
                                   36.49398 (Kcal/Mol)
 Warning -- explicit consideration of   5 degrees of freedom as
           vibrations may cause significant error
 Vibrational temperatures:    114.43   601.44   626.91   792.25   887.43
          (Kelvin)           1165.19  1397.67  1528.46  1539.92  1850.24
                             2022.47  2119.03  2127.19  2606.50  3927.84
                             4393.49  4476.55  4551.97

 Zero-point correction=                           0.058157 (Hartree/Particle)
 Thermal correction to Energy=                    0.062878
 Thermal correction to Enthalpy=                  0.063822
 Thermal correction to Gibbs Free Energy=         0.030889
 Sum of electronic and zero-point Energies=           -229.123415
 Sum of electronic and thermal Energies=              -229.118694
 Sum of electronic and thermal Enthalpies=            -229.117750
 Sum of electronic and thermal Free Energies=         -229.150682

                     E (Thermal)             CV                S
                      KCal/Mol        Cal/Mol-Kelvin    Cal/Mol-Kelvin
 Total                   39.456             14.994             69.313
 Electronic               0.000              0.000              0.000
 Translational            0.889              2.981             38.246
 Rotational               0.889              2.981             23.938
 Vibrational             37.679              9.033              7.129
 Vibration     1          0.600              1.963              3.902
 Vibration     2          0.781              1.431              0.899
 Vibration     3          0.796              1.392              0.840
 Vibration     4          0.906              1.138              0.543
 Vibration     5          0.976              0.996              0.422

 Optimization completed.
    -- Stationary point found.
 Normal termination of Gaussian 16 at Fri Nov  8 10:44:03 2024.
